 Gaussian 16, Revision A.03,

 -----------------------------------------------------------
 # opt freq B3LYP/6-31G(d) empiricaldispersion=gd3bj scf=xqc
 -----------------------------------------------------------

 -------------------------------
 CID_148576358_JID_1494_neutraal
 -------------------------------
 Symbolic Z-matrix:
 Charge =  0 Multiplicity = 1

 SCF Done:  E(RB3LYP) =  -460.885926287     A.U. after   13 cycles
 SCF Done:  E(RB3LYP) =  -460.890492414     A.U. after   11 cycles
 SCF Done:  E(RB3LYP) =  -460.891439992     A.U. after   11 cycles
 SCF Done:  E(RB3LYP) =  -460.891975149     A.U. after   11 cycles
 SCF Done:  E(RB3LYP) =  -460.892170669     A.U. after   11 cycles
 SCF Done:  E(RB3LYP) =  -460.892238974     A.U. after   10 cycles
 SCF Done:  E(RB3LYP) =  -460.892246548     A.U. after    9 cycles
 SCF Done:  E(RB3LYP) =  -460.892247785     A.U. after    8 cycles
 SCF Done:  E(RB3LYP) =  -460.892247932     A.U. after    8 cycles
 SCF Done:  E(RB3LYP) =  -460.892247989     A.U. after    6 cycles
 Optimization completed.
    -- Stationary point found.

 1\1\GINC-NODE105\FOpt\RB3LYP\6-31G(d)\C9H14N2\VSC10255\08-Dec-2020\0\\
 # opt freq B3LYP/6-31G(d) empiricaldispersion=gd3bj scf=xqc\\CID_14857
 6358_JID_1494_neutraal\\0,1\C,0.9899109978,-0.0946269812,-0.0835589741
 \C,-0.2518488859,-0.8162055409,-0.6479284638\C,-0.7301808842,-1.914800
 4133,0.3111234979\C,0.1772653907,-3.1243540995,0.2606956804\C,0.810927
 3839,-3.4653360042,-0.8820834519\C,0.6194954694,-2.6512814251,-2.09470
 09215\C,0.0929695632,-1.4258497729,-2.0006103003\C,-0.3208630187,-0.46
 87873506,-3.0938929845\N,-0.8070319641,0.704720878,-2.3480816978\C,-1.

 Normal termination of Gaussian 16 at Tue Dec  8 20:09:03 2020.

 --------------------------------------------------------------------
 #N Geom=AllCheck Guess=TCheck SCRF=Check GenChk RB3LYP/6-31G(d) Freq
 --------------------------------------------------------------------

 Structure from the checkpoint file:  "JID_1494.chk"
 -------------------------------
 CID_148576358_JID_1494_neutraal
 -------------------------------
 Charge =  0 Multiplicity = 1

 SCF Done:  E(RB3LYP) =  -460.892247989     A.U. after    1 cycles

  Exact polarizability: 126.104   3.069 109.303  -1.437  -4.651  72.183
 Approx polarizability: 173.796   7.767 171.333  -2.314 -12.782 109.334

                      1                      2                      3
                      A                      A                      A
 Frequencies --     95.4997               173.2314               205.7654
 Red. masses --      3.0026                 2.6886                 2.7706
 Frc consts  --      0.0161                 0.0475                 0.0691
 IR Inten    --      0.4624                 3.6383                 1.4155

                      4                      5                      6
                      A                      A                      A
 Frequencies --    231.2303               253.6706               264.9526
 Red. masses --      2.3910                 1.3383                 1.8232
 Frc consts  --      0.0753                 0.0507                 0.0754
 IR Inten    --      4.5002                 3.8221                 5.6127

                      7                      8                      9
                      A                      A                      A
 Frequencies --    288.4066               309.2666               334.4788
 Red. masses --      1.2327                 2.3089                 2.1449
 Frc consts  --      0.0604                 0.1301                 0.1414
 IR Inten    --     30.6423                 5.2783                 2.0099

                     10                     11                     12
                      A                      A                      A
 Frequencies --    367.7778               445.4159               465.9898
 Red. masses --      2.2775                 3.1100                 4.2001
 Frc consts  --      0.1815                 0.3635                 0.5374
 IR Inten    --      0.3651                 1.2402                 4.7652

                     13                     14                     15
                      A                      A                      A
 Frequencies --    536.4630               558.4230               602.2854
 Red. masses --      2.8453                 3.7507                 2.2164
 Frc consts  --      0.4824                 0.6891                 0.4737
 IR Inten    --      8.3486                 4.6462                47.9125

                     16                     17                     18
                      A                      A                      A
 Frequencies --    624.7800               676.0928               714.1424
 Red. masses --      2.4329                 2.1036                 1.9137
 Frc consts  --      0.5595                 0.5665                 0.5750
 IR Inten    --     66.7530                81.6535                84.5237

                     19                     20                     21
                      A                      A                      A
 Frequencies --    741.0517               779.3795               843.6007
 Red. masses --      3.2701                 1.6077                 1.9182
 Frc consts  --      1.0581                 0.5754                 0.8043
 IR Inten    --     21.7174                88.6086                27.0000

                     22                     23                     24
                      A                      A                      A
 Frequencies --    851.0846               881.2139               907.9163
 Red. masses --      1.7448                 2.2386                 2.6617
 Frc consts  --      0.7446                 1.0242                 1.2927
 IR Inten    --     61.1692                12.1593                 0.4666

                     25                     26                     27
                      A                      A                      A
 Frequencies --    967.6086               977.1570               994.9400
 Red. masses --      1.9532                 2.2258                 1.7967
 Frc consts  --      1.0774                 1.2522                 1.0479
 IR Inten    --      0.8586                 0.4723                 1.2434

                     28                     29                     30
                      A                      A                      A
 Frequencies --    998.8442              1036.5880              1050.3043
 Red. masses --      1.7436                 1.7265                 1.8001
 Frc consts  --      1.0249                 1.0930                 1.1700
 IR Inten    --      1.0343                 3.9191                 8.2108

                     31                     32                     33
                      A                      A                      A
 Frequencies --   1100.0786              1116.6256              1154.8131
 Red. masses --      2.5859                 2.4778                 1.4891
 Frc consts  --      1.8438                 1.8203                 1.1700
 IR Inten    --      8.4468                 3.9256                 2.7057

                     34                     35                     36
                      A                      A                      A
 Frequencies --   1160.9625              1193.1071              1208.1575
 Red. masses --      1.8059                 1.4742                 1.6487
 Frc consts  --      1.4341                 1.2364                 1.4178
 IR Inten    --      8.5116                 1.5466                 1.0355

                     37                     38                     39
                      A                      A                      A
 Frequencies --   1222.2730              1230.7153              1266.3838
 Red. masses --      1.4335                 1.2360                 2.0339
 Frc consts  --      1.2618                 1.1030                 1.9218
 IR Inten    --      8.8439                 8.5063                32.2447

                     40                     41                     42
                      A                      A                      A
 Frequencies --   1306.1901              1315.6418              1354.8743
 Red. masses --      1.5312                 1.6787                 1.7015
 Frc consts  --      1.5392                 1.7120                 1.8403
 IR Inten    --     17.9645                10.0412                 0.2571

                     43                     44                     45
                      A                      A                      A
 Frequencies --   1369.0737              1402.5396              1423.1320
 Red. masses --      1.7149                 1.4958                 1.3478
 Frc consts  --      1.8938                 1.7337                 1.6083
 IR Inten    --     10.3057                 4.8822                14.0114

                     46                     47                     48
                      A                      A                      A
 Frequencies --   1442.6482              1456.2100              1506.8066
 Red. masses --      2.1170                 1.4375                 1.0883
 Frc consts  --      2.5959                 1.7960                 1.4558
 IR Inten    --     26.1410                10.1510                 2.1206

                     49                     50                     51
                      A                      A                      A
 Frequencies --   1524.2658              1528.8932              1533.8984
 Red. masses --      1.0612                 1.0722                 1.0676
 Frc consts  --      1.4526                 1.4766                 1.4800
 IR Inten    --      3.4613                 0.5610                 3.4374

                     52                     53                     54
                      A                      A                      A
 Frequencies --   1548.8739              1676.7149              1698.9476
 Red. masses --      1.0962                 1.8877                 2.0179
 Frc consts  --      1.5494                 3.1269                 3.4316
 IR Inten    --      2.0043                16.6208                61.2306

                     55                     56                     57
                      A                      A                      A
 Frequencies --   1762.3036              2941.0060              2945.0985
 Red. masses --      7.4650                 1.0740                 1.0741
 Frc consts  --     13.6597                 5.4734                 5.4890
 IR Inten    --     43.9163                42.7097                78.6605

                     58                     59                     60
                      A                      A                      A
 Frequencies --   2967.7241              3046.0056              3046.5743
 Red. masses --      1.0722                 1.0451                 1.0835
 Frc consts  --      5.5640                 5.7131                 5.9254
 IR Inten    --     98.5093                21.3083                37.3835

                     61                     62                     63
                      A                      A                      A
 Frequencies --   3057.4191              3084.3842              3120.7953
 Red. masses --      1.0867                 1.0894                 1.0939
 Frc consts  --      5.9851                 6.1061                 6.2771
 IR Inten    --     35.8461                48.7477                23.1386

                     64                     65                     66
                      A                      A                      A
 Frequencies --   3149.6352              3151.7295              3171.4992
 Red. masses --      1.1036                 1.0903                 1.0899
 Frc consts  --      6.4506                 6.3808                 6.4593
 IR Inten    --     12.1588                28.9452                28.9476

                     67                     68                     69
                      A                      A                      A
 Frequencies --   3522.6361              3532.7918              3620.8117
 Red. masses --      1.0479                 1.0754                 1.0967
 Frc consts  --      7.6617                 7.9080                 8.4712
 IR Inten    --      2.1084                 1.1750                 2.5953

 - Thermochemistry -
 -------------------
 Temperature   298.150 Kelvin.  Pressure   1.00000 Atm.
 Atom     1 has atomic number  6 and mass  12.00000

 Molecular mass:   150.11570 amu.
 Principal axes and moments of inertia in atomic units:
                           1         2         3
     Eigenvalues --   840.161532068.166032474.34265
           X            0.99999   0.00318  -0.00006
           Y           -0.00318   0.99992   0.01200
           Z            0.00010  -0.01200   0.99993
 This molecule is an asymmetric top.
 Rotational symmetry number  1.
 Warning -- assumption of classical behavior for rotation
           may cause significant error
 Rotational temperatures (Kelvin)      0.10309     0.04188     0.03500
 Rotational constants (GHZ):           2.14809     0.87263     0.72938
 Zero-point vibrational energy     580426.9 (Joules/Mol)
                                  138.72536 (Kcal/Mol)
 Warning -- explicit consideration of  15 degrees of freedom as
           vibrations may cause significant error
 Vibrational temperatures:    137.40   249.24   296.05   332.69   364.98
          (Kelvin)            381.21   414.95   444.97   481.24   529.15
                              640.85   670.46   771.85   803.45   866.55
                              898.92   972.75  1027.49  1066.21  1121.35
                             1213.75  1224.52  1267.87  1306.29  1392.17
                             1405.91  1431.50  1437.11  1491.42  1511.15
                             1582.77  1606.58  1661.52  1670.37  1716.61
                             1738.27  1758.58  1770.72  1822.04  1879.32
                             1892.92  1949.36  1969.79  2017.94  2047.57
                             2075.65  2095.16  2167.96  2193.08  2199.74
                             2206.94  2228.48  2412.42  2444.41  2535.56
                             4231.45  4237.34  4269.89  4382.52  4383.34
                             4398.94  4437.74  4490.13  4531.62  4534.64
                             4563.08  5068.29  5082.90  5209.54

 Zero-point correction=                           0.221073 (Hartree/Particle)
 Thermal correction to Energy=                    0.231166
 Thermal correction to Enthalpy=                  0.232110
 Thermal correction to Gibbs Free Energy=         0.186679
 Sum of electronic and zero-point Energies=           -460.671175
 Sum of electronic and thermal Energies=              -460.661082
 Sum of electronic and thermal Enthalpies=            -460.660138
 Sum of electronic and thermal Free Energies=         -460.705569

                     E (Thermal)             CV                S
                      KCal/Mol        Cal/Mol-Kelvin    Cal/Mol-Kelvin
 Total                  145.059             41.244             95.618
 Electronic               0.000              0.000              0.000
 Translational            0.889              2.981             40.929
 Rotational               0.889              2.981             29.843
 Vibrational            143.281             35.282             24.847
 Vibration     1          0.603              1.952              3.544
 Vibration     2          0.627              1.875              2.400
 Vibration     3          0.640              1.832              2.081
 Vibration     4          0.653              1.793              1.869
 Vibration     5          0.665              1.757              1.705
 Vibration     6          0.671              1.737              1.629
 Vibration     7          0.685              1.695              1.483
 Vibration     8          0.699              1.656              1.366
 Vibration     9          0.716              1.607              1.238
 Vibration    10          0.740              1.538              1.089
 Vibration    11          0.805              1.371              0.810
 Vibration    12          0.823              1.325              0.749
 Vibration    13          0.891              1.169              0.573
 Vibration    14          0.914              1.121              0.527
 Vibration    15          0.961              1.027              0.446

 Optimization completed.
    -- Stationary point found.

 1\1\GINC-NODE105\Freq\RB3LYP\6-31G(d)\C9H14N2\VSC10255\08-Dec-2020\0\\
 #N Geom=AllCheck Guess=TCheck SCRF=Check GenChk RB3LYP/6-31G(d) Freq\\
 CID_148576358_JID_1494_neutraal\\0,1\C,0.9899109978,-0.0946269812,-0.0
 835589741\C,-0.2518488859,-0.8162055409,-0.6479284638\C,-0.7301808842,
 -1.9148004133,0.3111234979\C,0.1772653907,-3.1243540995,0.2606956804\C
 ,0.8109273839,-3.4653360042,-0.8820834519\C,0.6194954694,-2.6512814251
 ,-2.0947009215\C,0.0929695632,-1.4258497729,-2.0006103003\C,-0.3208630
 187,-0.4687873506,-3.0938929845\N,-0.8070319641,0.704720878,-2.3480816

 Normal termination of Gaussian 16 at Tue Dec  8 20:15:08 2020.

 ----------------------------------------------------------------------
 # B3LYP/6-311++G(d,p) empiricaldispersion=gd3bj scf=xqc pop=npa geom=c
 heck
 ----------------------------------------------------------------------

 ---------------------------------------
 CID_148576358_JID_1494_Energie_neutraal
 ---------------------------------------
 Structure from the checkpoint file:  "JID_1494.chk"
 Charge =  0 Multiplicity = 1

 SCF Done:  E(RB3LYP) =  -461.027356453     A.U. after   15 cycles
 Normal termination of Gaussian 16 at Tue Dec  8 20:18:22 2020.

 ----------------------------------------------------------------------
 # B3LYP/6-311++G(d,p) empiricaldispersion=gd3bj scf=xqc pop=npa geom=c
 heck
 ----------------------------------------------------------------------

 -------------------------------------
 CID_148576358_JID_1494_Energie_kation
 -------------------------------------
 Structure from the checkpoint file:  "JID_1494.chk"
 Charge =  1 Multiplicity = 2

 SCF Done:  E(UB3LYP) =  -460.768552341     A.U. after   21 cycles
 Normal termination of Gaussian 16 at Tue Dec  8 20:24:51 2020.
 Gaussian 16:  ES64L-G16RevA.03 25-Dec-2016

 ------------------------------------
 CID_148576358_JID_1494_Energie_anion
 ------------------------------------
 Structure from the checkpoint file:  "JID_1494.chk"
 Charge = -1 Multiplicity = 2

                         Standard orientation:
 ---------------------------------------------------------------------
 Center     Atomic      Atomic             Coordinates (Angstroms)
 Number     Number       Type             X           Y           Z
 ---------------------------------------------------------------------
      1          6           0        0.732748    1.144304    1.513000
      2          6           0        0.687486    0.673716    0.044104
      3          6           0       -0.343214    1.479851   -0.757955
      4          6           0       -1.756389    1.054607   -0.424602
      5          6           0       -2.030162   -0.221634   -0.078195
      6          6           0       -0.942158   -1.213025   -0.021950
      7          6           0        0.331476   -0.806747    0.001667
      8          6           0        1.603097   -1.618698   -0.077143
      9          7           0        2.660903   -0.597801    0.015230
     10          6           0        2.109319    0.642693   -0.547985
     11          7           0       -3.307030   -0.686754    0.281299
     12          1           0        1.016113    2.203601    1.558118
     13          1           0        1.469034    0.565215    2.076488
     14          1           0       -0.248350    1.030521    1.982539
     15          1           0       -0.155110    1.344721   -1.837807
     16          1           0       -0.208621    2.550341   -0.556923
     17          1           0       -2.558487    1.783866   -0.513179
     18          1           0       -1.204521   -2.270698   -0.020919
     19          1           0        1.699912   -2.349299    0.736641
     20          1           0        1.620780   -2.187080   -1.025668
     21          1           0        3.513688   -0.888494   -0.453652
     22          1           0        2.718095    1.501467   -0.244291
     23          1           0        2.048531    0.636127   -1.652467
     24          1           0       -3.480218   -1.648792    0.010481
     25          1           0       -4.061182   -0.090005   -0.040716
 ---------------------------------------------------------------------

 SCF Done:  E(UB3LYP) =  -461.011108842     A.U. after   33 cycles
 SCF Done:  E(UB3LYP) =  -461.011108841     a.u. after    1 cycles

 The electronic state is 2-A.
 Alpha  occ. eigenvalues --  -14.20171 -14.19246 -10.09534 -10.09110 -10.08694
 Alpha  occ. eigenvalues --  -10.07890 -10.07187 -10.06424 -10.06014 -10.05225
 Alpha  occ. eigenvalues --  -10.04051  -0.81933  -0.80069  -0.72278  -0.66053
 Alpha  occ. eigenvalues --   -0.63621  -0.58898  -0.57278  -0.52952  -0.47986
 Alpha  occ. eigenvalues --   -0.46356  -0.41049  -0.39115  -0.37863  -0.36380
 Alpha  occ. eigenvalues --   -0.35482  -0.33181  -0.32443  -0.31431  -0.30260
 Alpha  occ. eigenvalues --   -0.28085  -0.27608  -0.26899  -0.26514  -0.24184
 Alpha  occ. eigenvalues --   -0.23734  -0.21848  -0.20575  -0.15105  -0.12382
 Alpha  occ. eigenvalues --   -0.08388   0.04704
 Alpha virt. eigenvalues --    0.06352   0.07575   0.07879   0.08601   0.09140
 Alpha virt. eigenvalues --    0.09235   0.10750   0.11322   0.11453   0.11952
 Alpha virt. eigenvalues --    0.12326   0.14224   0.14399   0.14777   0.15335

  Beta  occ. eigenvalues --  -14.20117 -14.19222 -10.09533 -10.09084 -10.08678
  Beta  occ. eigenvalues --  -10.07888 -10.07182 -10.06414 -10.05995 -10.05214
  Beta  occ. eigenvalues --  -10.04039  -0.81900  -0.79997  -0.72245  -0.66022
  Beta  occ. eigenvalues --   -0.63583  -0.58849  -0.57246  -0.52900  -0.47924
  Beta  occ. eigenvalues --   -0.46309  -0.40989  -0.39044  -0.37828  -0.36317
  Beta  occ. eigenvalues --   -0.35443  -0.33151  -0.32407  -0.31392  -0.30232
  Beta  occ. eigenvalues --   -0.28053  -0.27571  -0.26871  -0.26487  -0.24159
  Beta  occ. eigenvalues --   -0.23703  -0.21822  -0.20543  -0.15063  -0.12338
  Beta  occ. eigenvalues --   -0.08365
  Beta virt. eigenvalues --    0.07066   0.07633   0.08066   0.08230   0.09087
  Beta virt. eigenvalues --    0.09816   0.09858   0.10951   0.11659   0.12120
  Beta virt. eigenvalues --    0.12396   0.12552   0.14323   0.14487   0.15276

 Mulliken charges and spin densities:
               1          2
     1  C   -0.708652  -0.060831
     2  C    0.047436   1.522201
     3  C    1.519213  -2.401282
     4  C   -2.307198   2.678991
     5  C    2.678072  -3.349152
     6  C   -2.495835   2.120751
     7  C    0.633857  -1.044289
     8  C    2.348933  -2.617562
     9  N   -0.281215   0.161145
    10  C    0.086704  -0.704392
    11  N   -0.290570   0.001106
    12  H    0.020245   0.104225
    13  H    0.121227   0.047128
    14  H    0.087080   0.086062
    15  H   -0.096025   0.219917
    16  H    0.232602  -0.100806
    17  H   -0.552918   0.719725
    18  H   -0.687140   0.865377
    19  H    0.036054   0.142183
    20  H   -0.460384   0.645200
    21  H   -0.159162   0.403522
    22  H   -0.018921   0.184105
    23  H   -0.278879   0.416943
    24  H   -0.251304   0.496506
    25  H   -0.223222   0.463229
 Sum of Mulliken charges =  -1.00000   1.00000

 Dipole moment (field-independent basis, Debye):
    X=              2.8698    Y=              3.8151    Z=              1.9688  Tot=              5.1640
 Quadrupole moment (field-independent basis, Debye-Ang):
   XX=           -139.4715   YY=           -103.8088   ZZ=            -99.4732
   XY=              0.1020   XZ=              3.2623   YZ=             -3.3405

 Summary of Natural Population Analysis:

                                       Natural Population
                Natural  -----------------------------------------------
    Atom  No    Charge         Core      Valence    Rydberg      Total
 -----------------------------------------------------------------------
      C    1   -0.28224      0.99962     2.27675    0.00588     3.28224
      C    2   -0.05222      0.99951     2.03967    0.01303     3.05222
      C    3   -0.19405      0.99959     2.18398    0.01047     3.19405
      C    4   -0.14160      0.99949     2.13137    0.01073     3.14160
      C    5    0.07755      0.99945     1.91045    0.01255     2.92245
      C    6   -0.11848      0.99940     2.10777    0.01131     3.11848
      C    7    0.02197      0.99947     1.96572    0.01283     2.97803
      C    8   -0.10179      0.99957     2.08985    0.01236     3.10179
      N    9   -0.34423      0.99976     2.83249    0.01198     3.84423
      C   10   -0.08011      0.99958     2.06830    0.01223     3.08011
      N   11   -0.39762      0.99972     2.88719    0.01071     3.89762
      H   12    0.09349      0.00000     0.40561    0.00090     0.40651
      H   13    0.10572      0.00000     0.39317    0.00112     0.39428
      H   14    0.10551      0.00000     0.39356    0.00094     0.39449
      H   15    0.09984      0.00000     0.39848    0.00168     0.40016
      H   16    0.09819      0.00000     0.40068    0.00114     0.40181
      H   17    0.09426      0.00000     0.40467    0.00106     0.40574
      H   18    0.10064      0.00000     0.39762    0.00174     0.39936
      H   19    0.09739      0.00000     0.40118    0.00143     0.40261
      H   20    0.09371      0.00000     0.40324    0.00305     0.40629
      H   21    0.17950      0.00000     0.31722    0.00328     0.32050
      H   22    0.09275      0.00000     0.40613    0.00113     0.40725
      H   23    0.08307      0.00000     0.41504    0.00189     0.41693
      H   24    0.18438      0.00000     0.31094    0.00468     0.31562
      H   25    0.18438      0.00000     0.31161    0.00402     0.31562
 =======================================================================
   * Total *    0.00000     10.99517    29.85269    0.15214    41.00000

 Normal termination of Gaussian 16 at Tue Dec  8 20:34:51 2020.
