 Gaussian 16, Revision A.03,

 -----------------------------------------------------------
 # opt freq B3LYP/6-31G(d) empiricaldispersion=gd3bj scf=xqc
 -----------------------------------------------------------

 ------------------------------
 CID_62255494_JID_6379_neutraal
 ------------------------------
 Symbolic Z-matrix:
 Charge =  0 Multiplicity = 1

 SCF Done:  E(RB3LYP) =  -656.324750043     A.U. after   14 cycles
 SCF Done:  E(RB3LYP) =  -656.329573777     A.U. after   12 cycles
 SCF Done:  E(RB3LYP) =  -656.330494404     A.U. after   12 cycles
 SCF Done:  E(RB3LYP) =  -656.331210953     A.U. after   12 cycles
 SCF Done:  E(RB3LYP) =  -656.331156986     A.U. after   12 cycles
 SCF Done:  E(RB3LYP) =  -656.331654777     A.U. after   12 cycles
 SCF Done:  E(RB3LYP) =  -656.331753810     A.U. after   11 cycles
 SCF Done:  E(RB3LYP) =  -656.331810749     A.U. after   12 cycles
 SCF Done:  E(RB3LYP) =  -656.331835498     A.U. after   10 cycles
 SCF Done:  E(RB3LYP) =  -656.331849290     A.U. after   11 cycles
 SCF Done:  E(RB3LYP) =  -656.331851785     A.U. after   10 cycles
 SCF Done:  E(RB3LYP) =  -656.331852581     A.U. after    8 cycles
 SCF Done:  E(RB3LYP) =  -656.331852889     A.U. after    7 cycles
 SCF Done:  E(RB3LYP) =  -656.331853036     A.U. after    7 cycles
 SCF Done:  E(RB3LYP) =  -656.331853119     A.U. after    7 cycles
 Optimization completed.
    -- Stationary point found.
 Normal termination of Gaussian 16 at Thu Dec 10 22:31:56 2020.

 --------------------------------------------------------------------
 #N Geom=AllCheck Guess=TCheck SCRF=Check GenChk RB3LYP/6-31G(d) Freq
 --------------------------------------------------------------------

 Structure from the checkpoint file:  "JID_6379.chk"
 ------------------------------
 CID_62255494_JID_6379_neutraal
 ------------------------------
 Charge =  0 Multiplicity = 1

 SCF Done:  E(RB3LYP) =  -656.331853119     A.U. after    1 cycles

  Exact polarizability: 193.957  12.194 153.960 -15.996   8.266 117.394
 Approx polarizability: 259.383  19.240 240.649 -34.196  22.252 187.900

                      1                      2                      3
                      A                      A                      A
 Frequencies --     17.4928                45.8214                61.4203
 Red. masses --      3.5090                 2.7203                 3.2915
 Frc consts  --      0.0006                 0.0034                 0.0073
 IR Inten    --      0.4710                 0.0958                 0.3512

                      4                      5                      6
                      A                      A                      A
 Frequencies --     78.1507               132.2630               155.5834
 Red. masses --      2.9229                 3.2655                 3.5595
 Frc consts  --      0.0105                 0.0337                 0.0508
 IR Inten    --      0.6589                 1.0012                 1.1419

                      7                      8                      9
                      A                      A                      A
 Frequencies --    191.2123               233.0240               255.8730
 Red. masses --      2.1805                 2.4672                 1.7745
 Frc consts  --      0.0470                 0.0789                 0.0685
 IR Inten    --      0.8775                 1.0068                 1.2598

                     10                     11                     12
                      A                      A                      A
 Frequencies --    261.3927               272.4397               284.8318
 Red. masses --      1.7299                 1.8564                 1.9521
 Frc consts  --      0.0696                 0.0812                 0.0933
 IR Inten    --      1.9631                 1.8076                 0.1893

                     13                     14                     15
                      A                      A                      A
 Frequencies --    311.2027               320.6947               344.7062
 Red. masses --      2.4249                 2.1594                 2.3061
 Frc consts  --      0.1384                 0.1308                 0.1614
 IR Inten    --      0.9584                 1.2030                 0.5854

                     16                     17                     18
                      A                      A                      A
 Frequencies --    401.0621               406.6784               458.5124
 Red. masses --      2.1308                 3.6194                 2.9655
 Frc consts  --      0.2019                 0.3527                 0.3673
 IR Inten    --      0.3051                 1.9651                 3.6981

                     19                     20                     21
                      A                      A                      A
 Frequencies --    465.0858               489.2856               535.3309
 Red. masses --      2.7228                 2.5078                 2.8127
 Frc consts  --      0.3470                 0.3537                 0.4749
 IR Inten    --      0.3397                 1.7086                 4.7422

                     22                     23                     24
                      A                      A                      A
 Frequencies --    566.8169               603.2033               626.9794
 Red. masses --      3.9875                 3.3262                 5.6690
 Frc consts  --      0.7548                 0.7131                 1.3130
 IR Inten    --      4.6158                13.4335                 2.2680

                     25                     26                     27
                      A                      A                      A
 Frequencies --    683.7749               718.1823               759.5674
 Red. masses --      2.3378                 2.6572                 4.3798
 Frc consts  --      0.6440                 0.8075                 1.4888
 IR Inten    --      3.2770                 3.7624                 5.0585

                     28                     29                     30
                      A                      A                      A
 Frequencies --    779.1109               784.3679               795.8099
 Red. masses --      1.8477                 1.9428                 1.2890
 Frc consts  --      0.6608                 0.7042                 0.4810
 IR Inten    --      2.8745                 4.7083                 6.2198

                     31                     32                     33
                      A                      A                      A
 Frequencies --    802.1739               818.0954               855.5945
 Red. masses --      2.1352                 1.5499                 2.4497
 Frc consts  --      0.8095                 0.6112                 1.0566
 IR Inten    --    103.1188                 9.8412                 2.8104

                     34                     35                     36
                      A                      A                      A
 Frequencies --    889.1902               899.7862               934.3003
 Red. masses --      2.1685                 2.1966                 2.2549
 Frc consts  --      1.0102                 1.0478                 1.1597
 IR Inten    --      0.4477                 2.8910                 2.0092

                     37                     38                     39
                      A                      A                      A
 Frequencies --    939.2904               955.1214               969.1966
 Red. masses --      1.7027                 1.3313                 1.3343
 Frc consts  --      0.8851                 0.7155                 0.7385
 IR Inten    --      9.5502                 0.3156                 0.7804

                     40                     41                     42
                      A                      A                      A
 Frequencies --    989.1786              1022.9817              1035.8219
 Red. masses --      1.9749                 1.5787                 1.7338
 Frc consts  --      1.1385                 0.9734                 1.0960
 IR Inten    --      6.0053                 8.8042                 0.9853

                     43                     44                     45
                      A                      A                      A
 Frequencies --   1049.7918              1065.2133              1079.0364
 Red. masses --      2.0386                 1.6797                 1.4839
 Frc consts  --      1.3237                 1.1229                 1.0179
 IR Inten    --      2.2562                 0.9628                 3.8815

                     46                     47                     48
                      A                      A                      A
 Frequencies --   1089.8238              1094.2145              1119.3419
 Red. masses --      2.1043                 2.1776                 1.5471
 Frc consts  --      1.4726                 1.5362                 1.1421
 IR Inten    --      3.4149                 4.9514                 2.3404

                     49                     50                     51
                      A                      A                      A
 Frequencies --   1130.1603              1135.0042              1145.4248
 Red. masses --      1.3104                 2.7062                 1.5599
 Frc consts  --      0.9861                 2.0540                 1.2058
 IR Inten    --      6.5637                21.5068                32.7005

                     52                     53                     54
                      A                      A                      A
 Frequencies --   1176.9047              1191.6365              1216.2296
 Red. masses --      2.2296                 1.7264                 2.0553
 Frc consts  --      1.8195                 1.4444                 1.7912
 IR Inten    --     14.6254                 1.4973                 4.9576

                     55                     56                     57
                      A                      A                      A
 Frequencies --   1253.6025              1285.3183              1290.4240
 Red. masses --      1.9156                 1.3487                 1.8702
 Frc consts  --      1.7737                 1.3127                 1.8349
 IR Inten    --      0.7162                 5.4328                 0.8894

                     58                     59                     60
                      A                      A                      A
 Frequencies --   1302.0209              1319.2538              1324.9008
 Red. masses --      1.3574                 2.2077                 1.2266
 Frc consts  --      1.3558                 2.2639                 1.2686
 IR Inten    --     17.1027                16.0508                 2.7560

                     61                     62                     63
                      A                      A                      A
 Frequencies --   1344.7391              1347.9358              1360.7101
 Red. masses --      1.3607                 3.1581                 1.2859
 Frc consts  --      1.4497                 3.3808                 1.4028
 IR Inten    --      1.7405                54.4682                 1.7422

                     64                     65                     66
                      A                      A                      A
 Frequencies --   1384.2893              1385.8300              1397.0893
 Red. masses --      1.3710                 1.3750                 1.4063
 Frc consts  --      1.5479                 1.5559                 1.6173
 IR Inten    --      1.6935                 0.5467                 1.2684

                     67                     68                     69
                      A                      A                      A
 Frequencies --   1403.2837              1415.9213              1423.9009
 Red. masses --      1.4675                 1.3749                 1.4110
 Frc consts  --      1.7026                 1.6240                 1.6855
 IR Inten    --      7.7496                 0.4275                 5.7208

                     70                     71                     72
                      A                      A                      A
 Frequencies --   1430.7863              1443.2050              1450.3831
 Red. masses --      1.3195                 1.2774                 1.2872
 Frc consts  --      1.5915                 1.5676                 1.5954
 IR Inten    --      1.8206                 2.3527                11.9613

                     73                     74                     75
                      A                      A                      A
 Frequencies --   1477.4970              1494.7107              1510.7073
 Red. masses --      1.7660                 2.6838                 1.0980
 Frc consts  --      2.2714                 3.5327                 1.4764
 IR Inten    --     22.6018               257.5112                 4.1226

                     76                     77                     78
                      A                      A                      A
 Frequencies --   1515.2311              1517.3410              1517.9682
 Red. masses --      1.0931                 1.0578                 1.0632
 Frc consts  --      1.4787                 1.4348                 1.4434
 IR Inten    --      0.1460                 7.2615                 3.4499

                     79                     80                     81
                      A                      A                      A
 Frequencies --   1527.2642              1529.7644              1532.7825
 Red. masses --      1.1609                 1.1555                 1.1002
 Frc consts  --      1.5954                 1.5932                 1.5229
 IR Inten    --      1.4966                 4.0592                12.2219

                     82                     83                     84
                      A                      A                      A
 Frequencies --   1540.0636              1543.7519              1548.5969
 Red. masses --      1.0836                 1.1299                 1.3347
 Frc consts  --      1.5142                 1.5865                 1.8858
 IR Inten    --      7.0452                11.2998                65.6052

                     85                     86                     87
                      A                      A                      A
 Frequencies --   1637.2765              1654.8706              3000.1933
 Red. masses --      4.5686                 5.3331                 1.0800
 Frc consts  --      7.2156                 8.6051                 5.7277
 IR Inten    --     42.9292                87.0774                20.6891

                     88                     89                     90
                      A                      A                      A
 Frequencies --   3019.8493              3023.2306              3034.4710
 Red. masses --      1.0684                 1.0676                 1.0718
 Frc consts  --      5.7407                 5.7493                 5.8147
 IR Inten    --     27.3718                32.2544                38.5517

                     91                     92                     93
                      A                      A                      A
 Frequencies --   3038.9399              3048.4375              3053.2260
 Red. masses --      1.0403                 1.0629                 1.0536
 Frc consts  --      5.6604                 5.8198                 5.7870
 IR Inten    --     24.1379                14.8591                20.8219

                     94                     95                     96
                      A                      A                      A
 Frequencies --   3059.2807              3065.9586              3076.5330
 Red. masses --      1.0498                 1.0942                 1.0929
 Frc consts  --      5.7889                 6.0600                 6.0946
 IR Inten    --     22.0018                55.3940                62.2817

                     97                     98                     99
                      A                      A                      A
 Frequencies --   3081.5550              3088.9783              3093.7508
 Red. masses --      1.0885                 1.0950                 1.0982
 Frc consts  --      6.0899                 6.1560                 6.1928
 IR Inten    --     11.4324                 4.2996                24.8336

                    100                    101                    102
                      A                      A                      A
 Frequencies --   3095.7626              3101.6025              3116.3830
 Red. masses --      1.0962                 1.0990                 1.0978
 Frc consts  --      6.1898                 6.2292                 6.2817
 IR Inten    --     28.2684               127.8144                22.9846

                    103                    104                    105
                      A                      A                      A
 Frequencies --   3123.9155              3136.9552              3168.6041
 Red. masses --      1.1020                 1.1002                 1.0889
 Frc consts  --      6.3363                 6.3788                 6.4415
 IR Inten    --     14.2884                40.2122                28.2421

                    106                    107                    108
                      A                      A                      A
 Frequencies --   3179.0063              3217.1441              3528.7988
 Red. masses --      1.0897                 1.0956                 1.0734
 Frc consts  --      6.4885                 6.6811                 7.8755
 IR Inten    --     21.5597                23.2907                 7.3398

 - Thermochemistry -
 -------------------
 Temperature   298.150 Kelvin.  Pressure   1.00000 Atm.
 Atom     1 has atomic number  6 and mass  12.00000

 Molecular mass:   218.17830 amu.
 Principal axes and moments of inertia in atomic units:
                           1         2         3
     Eigenvalues --  1848.935115285.693416011.16404
           X            0.99995  -0.00846  -0.00524
           Y            0.00849   0.99994   0.00655
           Z            0.00519  -0.00659   0.99996
 This molecule is an asymmetric top.
 Rotational symmetry number  1.
 Warning -- assumption of classical behavior for rotation
           may cause significant error
 Rotational temperatures (Kelvin)      0.04685     0.01639     0.01441
 Rotational constants (GHZ):           0.97610     0.34144     0.30023
 Zero-point vibrational energy     903822.9 (Joules/Mol)
                                  216.01885 (Kcal/Mol)
 Warning -- explicit consideration of  23 degrees of freedom as
           vibrations may cause significant error
 Vibrational temperatures:     25.17    65.93    88.37   112.44   190.30
          (Kelvin)            223.85   275.11   335.27   368.14   376.09
                              391.98   409.81   447.75   461.41   495.96
                              577.04   585.12   659.70   669.15   703.97
                              770.22   815.52   867.87   902.08   983.80
                             1033.30  1092.85  1120.97  1128.53  1144.99
                             1154.15  1177.06  1231.01  1279.35  1294.59
                             1344.25  1351.43  1374.21  1394.46  1423.21
                             1471.84  1490.32  1510.42  1532.60  1552.49
                             1568.01  1574.33  1610.48  1626.05  1633.02
                             1648.01  1693.30  1714.50  1749.88  1803.65
                             1849.29  1856.63  1873.32  1898.11  1906.24
                             1934.78  1939.38  1957.76  1991.68  1993.90
                             2010.10  2019.01  2037.20  2048.68  2058.58
                             2076.45  2086.78  2125.79  2150.56  2173.57
                             2180.08  2183.12  2184.02  2197.39  2200.99
                             2205.33  2215.81  2221.11  2228.09  2355.68
                             2380.99  4316.61  4344.89  4349.75  4365.93
                             4372.36  4386.02  4392.91  4401.62  4411.23
                             4426.44  4433.67  4444.35  4451.22  4454.11
                             4462.51  4483.78  4494.62  4513.38  4558.91
                             4573.88  4628.75  5077.15

 Zero-point correction=                           0.344248 (Hartree/Particle)
 Thermal correction to Energy=                    0.359524
 Thermal correction to Enthalpy=                  0.360469
 Thermal correction to Gibbs Free Energy=         0.301109
 Sum of electronic and zero-point Energies=           -655.987605
 Sum of electronic and thermal Energies=              -655.972329
 Sum of electronic and thermal Enthalpies=            -655.971384
 Sum of electronic and thermal Free Energies=         -656.030744

                     E (Thermal)             CV                S
                      KCal/Mol        Cal/Mol-Kelvin    Cal/Mol-Kelvin
 Total                  225.605             60.590            124.932
 Electronic               0.000              0.000              0.000
 Translational            0.889              2.981             42.043
 Rotational               0.889              2.981             32.441
 Vibrational            223.828             54.628             50.448
 Vibration     1          0.593              1.986              6.900
 Vibration     2          0.595              1.979              4.990
 Vibration     3          0.597              1.973              4.411
 Vibration     4          0.599              1.964              3.937
 Vibration     5          0.612              1.921              2.913
 Vibration     6          0.620              1.896              2.603
 Vibration     7          0.634              1.852              2.216
 Vibration     8          0.654              1.790              1.856
 Vibration     9          0.666              1.753              1.690
 Vibration    10          0.669              1.743              1.652
 Vibration    11          0.675              1.724              1.581
 Vibration    12          0.683              1.702              1.504
 Vibration    13          0.700              1.652              1.356
 Vibration    14          0.706              1.634              1.307
 Vibration    15          0.723              1.586              1.190
 Vibration    16          0.767              1.468              0.959
 Vibration    17          0.771              1.456              0.938
 Vibration    18          0.817              1.342              0.770
 Vibration    19          0.823              1.328              0.751
 Vibration    20          0.845              1.274              0.685
 Vibration    21          0.890              1.172              0.575
 Vibration    22          0.923              1.103              0.510
 Vibration    23          0.962              1.025              0.444

 Optimization completed.
    -- Stationary point found.
 Normal termination of Gaussian 16 at Thu Dec 10 22:47:14 2020.

 ----------------------------------------------------------------------
 # B3LYP/6-311++G(d,p) empiricaldispersion=gd3bj scf=xqc pop=npa geom=c
 heck
 ----------------------------------------------------------------------

 --------------------------------------
 CID_62255494_JID_6379_Energie_neutraal
 --------------------------------------
 Structure from the checkpoint file:  "JID_6379.chk"
 Charge =  0 Multiplicity = 1

 SCF Done:  E(RB3LYP) =  -656.506566436     A.U. after   15 cycles
 Normal termination of Gaussian 16 at Thu Dec 10 22:54:45 2020.

 ----------------------------------------------------------------------
 # B3LYP/6-311++G(d,p) empiricaldispersion=gd3bj scf=xqc pop=npa geom=c
 heck
 ----------------------------------------------------------------------

 ------------------------------------
 CID_62255494_JID_6379_Energie_kation
 ------------------------------------
 Structure from the checkpoint file:  "JID_6379.chk"
 Charge =  1 Multiplicity = 2

 SCF Done:  E(UB3LYP) =  -656.228844635     A.U. after   23 cycles
 Normal termination of Gaussian 16 at Thu Dec 10 23:11:24 2020.
 Gaussian 16:  ES64L-G16RevA.03 25-Dec-2016

 ----------------------------------------------------------------------
 # B3LYP/6-311++G(d,p) empiricaldispersion=gd3bj scf=xqc pop=npa geom=c
 heck
 ----------------------------------------------------------------------

 -----------------------------------
 CID_62255494_JID_6379_Energie_anion
 -----------------------------------
 Structure from the checkpoint file:  "JID_6379.chk"
 Charge = -1 Multiplicity = 2

                         Standard orientation:
 ---------------------------------------------------------------------
 Center     Atomic      Atomic             Coordinates (Angstroms)
 Number     Number       Type             X           Y           Z
 ---------------------------------------------------------------------
      1          6           0        1.873550   -2.551645   -0.137380
      2          6           0        0.979651   -1.730294    0.799548
      3          6           0        1.143745   -0.193999    0.877051
      4          6           0        2.465110    0.288492    1.518488
      5          6           0        3.663739    0.349819    0.559920
      6          6           0        3.331164    1.168102   -0.692700
      7          6           0        2.080402    0.627911   -1.394754
      8          6           0        0.883031    0.593258   -0.436057
      9          7           0       -0.305131    0.145558   -1.177109
     10          6           0       -1.558174    0.013290   -0.574989
     11          6           0       -2.194011    1.068528    0.127192
     12          6           0       -3.451880    0.795137    0.660165
     13          6           0       -4.060185   -0.446762    0.474454
     14          6           0       -3.368860   -1.389516   -0.277743
     15          7           0       -2.148794   -1.178200   -0.778780
     16          6           0       -1.600810    2.448199    0.245391
     17          1           0        1.713463   -2.300041   -1.190719
     18          1           0        1.640001   -3.616714   -0.025798
     19          1           0        2.938895   -2.426757    0.076819
     20          1           0       -0.063087   -1.945481    0.541521
     21          1           0        1.117807   -2.108063    1.822148
     22          1           0        0.341249    0.115618    1.563187
     23          1           0        2.301764    1.301717    1.914522
     24          1           0        2.701378   -0.343039    2.384416
     25          1           0        3.967157   -0.659756    0.260812
     26          1           0        4.524135    0.789710    1.079795
     27          1           0        4.180525    1.172257   -1.386324
     28          1           0        3.156604    2.215238   -0.404497
     29          1           0        2.286579   -0.374778   -1.787551
     30          1           0        1.815396    1.254857   -2.254104
     31          1           0        0.717595    1.632769   -0.138017
     32          1           0       -0.117222   -0.716271   -1.682660
     33          1           0       -3.970745    1.580117    1.205889
     34          1           0       -5.042453   -0.664317    0.880480
     35          1           0       -3.803000   -2.366263   -0.484876
     36          1           0       -0.820658    2.508633    1.015072
     37          1           0       -1.150678    2.762490   -0.702633
     38          1           0       -2.376053    3.173448    0.512230
 ---------------------------------------------------------------------

 SCF Done:  E(UB3LYP) =  -656.492443842     A.U. after   33 cycles
 SCF Done:  E(UB3LYP) =  -656.492443867     a.u. after    2 cycles

 The electronic state is 2-A.
 Alpha  occ. eigenvalues --  -14.22161 -14.20983 -10.14463 -10.10996 -10.10735
 Alpha  occ. eigenvalues --  -10.09139 -10.08955 -10.07822 -10.07477 -10.07239
 Alpha  occ. eigenvalues --  -10.07195 -10.06993 -10.06970 -10.06877 -10.06716
 Alpha  occ. eigenvalues --  -10.06636  -0.87298  -0.80977  -0.73407  -0.71849
 Alpha  occ. eigenvalues --   -0.68206  -0.67141  -0.63977  -0.63008  -0.59679
 Alpha  occ. eigenvalues --   -0.54896  -0.53166  -0.52324  -0.50467  -0.48705
 Alpha  occ. eigenvalues --   -0.44852  -0.42996  -0.41062  -0.38487  -0.37919
 Alpha  occ. eigenvalues --   -0.37229  -0.36123  -0.34278  -0.33483  -0.33319
 Alpha  occ. eigenvalues --   -0.32899  -0.31423  -0.30888  -0.30379  -0.30172
 Alpha  occ. eigenvalues --   -0.29556  -0.29020  -0.28668  -0.27271  -0.25865
 Alpha  occ. eigenvalues --   -0.25511  -0.24633  -0.23791  -0.22310  -0.21190
 Alpha  occ. eigenvalues --   -0.20640  -0.19607  -0.17891  -0.17029  -0.12127
 Alpha  occ. eigenvalues --    0.04241
 Alpha virt. eigenvalues --    0.05910   0.06456   0.06641   0.07299   0.07629
 Alpha virt. eigenvalues --    0.07991   0.08475   0.09105   0.09746   0.09852
 Alpha virt. eigenvalues --    0.09912   0.10338   0.11444   0.11699   0.12323

  Beta  occ. eigenvalues --  -14.22158 -14.20981 -10.14461 -10.10986 -10.10728
  Beta  occ. eigenvalues --  -10.09131 -10.08936 -10.07812 -10.07475 -10.07205
  Beta  occ. eigenvalues --  -10.07187 -10.06972 -10.06959 -10.06867 -10.06700
  Beta  occ. eigenvalues --  -10.06613  -0.87290  -0.80966  -0.73382  -0.71822
  Beta  occ. eigenvalues --   -0.68184  -0.67113  -0.63945  -0.62980  -0.59635
  Beta  occ. eigenvalues --   -0.54861  -0.53131  -0.52286  -0.50432  -0.48658
  Beta  occ. eigenvalues --   -0.44816  -0.42964  -0.41038  -0.38444  -0.37887
  Beta  occ. eigenvalues --   -0.37206  -0.36097  -0.34251  -0.33442  -0.33293
  Beta  occ. eigenvalues --   -0.32874  -0.31395  -0.30857  -0.30346  -0.30142
  Beta  occ. eigenvalues --   -0.29530  -0.28991  -0.28644  -0.27241  -0.25831
  Beta  occ. eigenvalues --   -0.25488  -0.24600  -0.23764  -0.22283  -0.21162
  Beta  occ. eigenvalues --   -0.20609  -0.19585  -0.17859  -0.17018  -0.12107
  Beta virt. eigenvalues --    0.06220   0.06524   0.06744   0.07174   0.07772
  Beta virt. eigenvalues --    0.08126   0.08394   0.08586   0.09496   0.09939
  Beta virt. eigenvalues --    0.10240   0.10304   0.10798   0.11731   0.12069

 Mulliken charges and spin densities:
               1          2
     1  C   -0.104248  -0.386867
     2  C   -0.682683  -0.023805
     3  C    0.430882   0.512740
     4  C    0.364894  -0.914899
     5  C    0.127407  -0.373720
     6  C    0.141603  -0.756982
     7  C   -0.114308   0.134418
     8  C   -0.855394  -0.284011
     9  N    0.266788   0.051860
    10  C   -3.233693   1.913382
    11  C   -0.234024   1.766034
    12  C    0.600943  -1.272966
    13  C    0.587851  -0.629415
    14  C    0.372858  -0.532804
    15  N    0.026308  -0.011736
    16  C    2.506779  -2.992618
    17  H   -0.042170   0.185293
    18  H    0.072610   0.065042
    19  H    0.107540   0.039659
    20  H    0.371424  -0.195431
    21  H   -0.209432   0.359051
    22  H    0.165488   0.061931
    23  H   -0.331527   0.502715
    24  H   -0.074397   0.227438
    25  H    0.114853  -0.044726
    26  H   -0.339654   0.529092
    27  H   -0.270877   0.457616
    28  H   -0.232633   0.363110
    29  H    0.098930  -0.009262
    30  H   -0.004923   0.201013
    31  H    1.017227  -0.882656
    32  H    0.238968   0.015907
    33  H   -0.561896   0.736286
    34  H   -0.444230   0.608274
    35  H   -0.005621   0.173766
    36  H   -0.220702   0.411506
    37  H   -0.040547   0.218229
    38  H   -0.610396   0.777533
 Sum of Mulliken charges =  -1.00000   1.00000

 Dipole moment (field-independent basis, Debye):
    X=              0.7349    Y=             -4.6521    Z=             -3.0284  Tot=              5.5995
 Quadrupole moment (field-independent basis, Debye-Ang):
   XX=           -186.5370   YY=           -149.5871   ZZ=           -139.2160
   XY=             -1.7387   XZ=              1.1262   YZ=             -4.6117

 Summary of Natural Population Analysis:

                                       Natural Population
                Natural  -----------------------------------------------
    Atom  No    Charge         Core      Valence    Rydberg      Total
 -----------------------------------------------------------------------
      C    1   -0.28417      0.99965     2.28040    0.00412     3.28417
      C    2   -0.19641      0.99961     2.18801    0.00880     3.19641
      C    3   -0.11506      0.99956     2.10414    0.01135     3.11506
      C    4   -0.18922      0.99961     2.17991    0.00970     3.18922
      C    5   -0.18961      0.99962     2.18177    0.00822     3.18961
      C    6   -0.18791      0.99963     2.17978    0.00850     3.18791
      C    7   -0.19096      0.99960     2.18188    0.00947     3.19096
      C    8   -0.00906      0.99954     1.99635    0.01317     3.00906
      N    9   -0.32025      0.99968     2.81013    0.01044     3.82025
      C   10    0.20422      0.99948     1.78073    0.01557     2.79578
      C   11   -0.04628      0.99947     2.03699    0.00982     3.04628
      C   12   -0.07422      0.99952     2.06435    0.01036     3.07422
      C   13   -0.13887      0.99955     2.12935    0.00997     3.13887
      C   14    0.02918      0.99958     1.95682    0.01442     2.97082
      N   15   -0.26116      0.99967     2.75106    0.01042     3.76116
      C   16   -0.29521      0.99964     2.28938    0.00619     3.29521
      H   17    0.09166      0.00000     0.40723    0.00111     0.40834
      H   18    0.09734      0.00000     0.40188    0.00079     0.40266
      H   19    0.09500      0.00000     0.40386    0.00113     0.40500
      H   20    0.10600      0.00000     0.39233    0.00167     0.39400
      H   21    0.09538      0.00000     0.40361    0.00101     0.40462
      H   22    0.10222      0.00000     0.39562    0.00216     0.39778
      H   23    0.09924      0.00000     0.39915    0.00161     0.40076
      H   24    0.09946      0.00000     0.39936    0.00119     0.40054
      H   25    0.09065      0.00000     0.40791    0.00144     0.40935
      H   26    0.10008      0.00000     0.39867    0.00125     0.39992
      H   27    0.09834      0.00000     0.40068    0.00098     0.40166
      H   28    0.09553      0.00000     0.40288    0.00159     0.40447
      H   29    0.09250      0.00000     0.40599    0.00151     0.40750
      H   30    0.10263      0.00000     0.39629    0.00108     0.39737
      H   31    0.09924      0.00000     0.39792    0.00284     0.40076
      H   32    0.18517      0.00000     0.31167    0.00316     0.31483
      H   33    0.10282      0.00000     0.39558    0.00160     0.39718
      H   34    0.10406      0.00000     0.39483    0.00111     0.39594
      H   35    0.08834      0.00000     0.41065    0.00101     0.41166
      H   36    0.10751      0.00000     0.39079    0.00170     0.39249
      H   37    0.10666      0.00000     0.39207    0.00127     0.39334
      H   38    0.10519      0.00000     0.39354    0.00127     0.39481
 =======================================================================
   * Total *   -0.00000     15.99342    43.81357    0.19301    60.00000

 Normal termination of Gaussian 16 at Thu Dec 10 23:47:17 2020.
