 Gaussian 16, Revision A.03,

 -----------------------------------------------------------
 # opt freq B3LYP/6-31G(d) empiricaldispersion=gd3bj scf=xqc
 -----------------------------------------------------------

 ------------------------------
 CID_20475176_JID_1148_neutraal
 ------------------------------
 Symbolic Z-matrix:
 Charge =  0 Multiplicity = 1

 SCF Done:  E(RB3LYP) =  -531.528971143     A.U. after   15 cycles
 SCF Done:  E(RB3LYP) =  -531.535445014     A.U. after   12 cycles
 SCF Done:  E(RB3LYP) =  -531.535963115     A.U. after   12 cycles
 SCF Done:  E(RB3LYP) =  -531.535996778     A.U. after   10 cycles
 SCF Done:  E(RB3LYP) =  -531.536001195     A.U. after    9 cycles
 SCF Done:  E(RB3LYP) =  -531.536001550     A.U. after    7 cycles
 Optimization completed.
    -- Stationary point found.
 Normal termination of Gaussian 16 at Tue Dec  8 19:11:27 2020.

 --------------------------------------------------------------------
 #N Geom=AllCheck Guess=TCheck SCRF=Check GenChk RB3LYP/6-31G(d) Freq
 --------------------------------------------------------------------

 Structure from the checkpoint file:  "JID_1148.chk"
 ------------------------------
 CID_20475176_JID_1148_neutraal
 ------------------------------
 Charge =  0 Multiplicity = 1

 SCF Done:  E(RB3LYP) =  -531.536001550     A.U. after    1 cycles

  Exact polarizability: 137.600  -2.288  95.723  -0.001   0.003  39.086
 Approx polarizability: 185.851 -19.906 158.367  -0.002   0.005  59.185

                      1                      2                      3
                      A                      A                      A
 Frequencies --     67.5806                99.5050               138.3663
 Red. masses --      4.5994                 3.3291                 2.3941
 Frc consts  --      0.0124                 0.0194                 0.0270
 IR Inten    --      0.2638                 4.7751                 3.9230

                      4                      5                      6
                      A                      A                      A
 Frequencies --    154.0382               188.4771               202.6501
 Red. masses --      2.2161                 3.6863                 3.0313
 Frc consts  --      0.0310                 0.0772                 0.0733
 IR Inten    --      4.0944                 0.1897                 2.9907

                      7                      8                      9
                      A                      A                      A
 Frequencies --    223.5073               259.5355               385.3630
 Red. masses --      3.4024                 4.8583                10.2568
 Frc consts  --      0.1001                 0.1928                 0.8974
 IR Inten    --      0.1656                 2.7949                19.3852

                     10                     11                     12
                      A                      A                      A
 Frequencies --    398.8753               470.0626               542.7942
 Red. masses --      4.2721                 3.3074                 4.2480
 Frc consts  --      0.4005                 0.4306                 0.7374
 IR Inten    --      0.2495                 3.1858                10.0211

                     13                     14                     15
                      A                      A                      A
 Frequencies --    570.9943               603.1392               681.4806
 Red. masses --      2.7967                 6.3851                 1.8366
 Frc consts  --      0.5372                 1.3685                 0.5025
 IR Inten    --      6.5379                34.0025                10.9450

                     16                     17                     18
                      A                      A                      A
 Frequencies --    697.7739               712.1092               747.0348
 Red. masses --      3.0299                 1.9830                 4.7092
 Frc consts  --      0.8692                 0.5925                 1.5484
 IR Inten    --      0.4117                 4.8932                 4.9327

                     19                     20                     21
                      A                      A                      A
 Frequencies --    760.8704               893.2028               920.5919
 Red. masses --      5.6244                 1.3739                 1.3721
 Frc consts  --      1.9184                 0.6458                 0.6851
 IR Inten    --     23.0869                39.2798                40.4947

                     22                     23                     24
                      A                      A                      A
 Frequencies --    926.8689               998.8458              1002.7694
 Red. masses --      3.0279                 1.8787                 1.0718
 Frc consts  --      1.5326                 1.1043                 0.6350
 IR Inten    --      9.7670                30.9522                23.5345

                     25                     26                     27
                      A                      A                      A
 Frequencies --   1026.9308              1028.6824              1091.5101
 Red. masses --      1.8072                 1.1084                 2.2429
 Frc consts  --      1.1229                 0.6910                 1.5744
 IR Inten    --      0.7965                24.7960                 6.1315

                     28                     29                     30
                      A                      A                      A
 Frequencies --   1145.4902              1209.1732              1232.7981
 Red. masses --      4.1225                 1.0991                 4.0816
 Frc consts  --      3.1871                 0.9468                 3.6548
 IR Inten    --     93.0906                 1.6640                 6.7852

                     31                     32                     33
                      A                      A                      A
 Frequencies --   1255.5979              1285.1345              1351.2354
 Red. masses --      5.4247                 1.9023                 1.3625
 Frc consts  --      5.0388                 1.8511                 1.4658
 IR Inten    --     46.7413               127.6745                26.2983

                     34                     35                     36
                      A                      A                      A
 Frequencies --   1364.5986              1423.3250              1458.9829
 Red. masses --      1.3032                 3.2100                 1.7961
 Frc consts  --      1.4298                 3.8314                 2.2525
 IR Inten    --     27.1209               134.3210               254.0084

                     37                     38                     39
                      A                      A                      A
 Frequencies --   1459.8430              1465.3225              1521.6000
 Red. masses --      1.5695                 1.4481                 1.1360
 Frc consts  --      1.9707                 1.8320                 1.5497
 IR Inten    --    210.5476                83.9981                80.7824

                     40                     41                     42
                      A                      A                      A
 Frequencies --   1722.9694              1725.4774              1819.8357
 Red. masses --      4.5642                 4.6309                11.8060
 Frc consts  --      7.9830                 8.1233                23.0365
 IR Inten    --     96.5246                23.0690               586.4036

                     43                     44                     45
                      A                      A                      A
 Frequencies --   1866.8145              3060.8567              3100.6847
 Red. masses --     12.0038                 1.0574                 1.1076
 Frc consts  --     24.6475                 5.8369                 6.2743
 IR Inten    --     64.4677                21.0310                 7.8659

                     46                     47                     48
                      A                      A                      A
 Frequencies --   3193.5461              3201.3076              3207.8824
 Red. masses --      1.0748                 1.0602                 1.0780
 Frc consts  --      6.4587                 6.4016                 6.5361
 IR Inten    --      3.2440                 2.8378                11.6811

                     49                     50                     51
                      A                      A                      A
 Frequencies --   3235.7270              3304.3321              3307.5686
 Red. masses --      1.0943                 1.1150                 1.1150
 Frc consts  --      6.7505                 7.1731                 7.1869
 IR Inten    --      6.5642                 2.9831                 3.2616

 - Thermochemistry -
 -------------------
 Temperature   298.150 Kelvin.  Pressure   1.00000 Atm.
 Atom     1 has atomic number  6 and mass  12.00000

 Molecular mass:   152.05858 amu.
 Principal axes and moments of inertia in atomic units:
                           1         2         3
     Eigenvalues --   793.014802143.424342925.03616
           X            0.99959   0.02855  -0.00000
           Y           -0.02855   0.99959   0.00001
           Z            0.00000  -0.00001   1.00000
 This molecule is an asymmetric top.
 Rotational symmetry number  1.
 Warning -- assumption of classical behavior for rotation
           may cause significant error
 Rotational temperatures (Kelvin)      0.10922     0.04041     0.02961
 Rotational constants (GHZ):           2.27580     0.84199     0.61700
 Zero-point vibrational energy     387073.7 (Joules/Mol)
                                   92.51283 (Kcal/Mol)
 Warning -- explicit consideration of  14 degrees of freedom as
           vibrations may cause significant error
 Vibrational temperatures:     97.23   143.17   199.08   221.63   271.18
          (Kelvin)            291.57   321.58   373.41   554.45   573.89
                              676.32   780.96   821.53   867.78   980.50
                             1003.94  1024.57  1074.82  1094.72  1285.12
                             1324.53  1333.56  1437.12  1442.76  1477.52
                             1480.04  1570.44  1648.10  1739.73  1773.72
                             1806.53  1849.02  1944.13  1963.35  2047.85
                             2099.15  2100.39  2108.27  2189.24  2478.97
                             2482.58  2618.34  2685.93  4403.89  4461.19
                             4594.80  4605.97  4615.43  4655.49  4754.20
                             4758.85

 Zero-point correction=                           0.147429 (Hartree/Particle)
 Thermal correction to Energy=                    0.157616
 Thermal correction to Enthalpy=                  0.158560
 Thermal correction to Gibbs Free Energy=         0.111607
 Sum of electronic and zero-point Energies=           -531.388573
 Sum of electronic and thermal Energies=              -531.378386
 Sum of electronic and thermal Enthalpies=            -531.377441
 Sum of electronic and thermal Free Energies=         -531.424395

                     E (Thermal)             CV                S
                      KCal/Mol        Cal/Mol-Kelvin    Cal/Mol-Kelvin
 Total                   98.906             37.381             98.822
 Electronic               0.000              0.000              0.000
 Translational            0.889              2.981             40.967
 Rotational               0.889              2.981             29.987
 Vibrational             97.128             31.420             27.867
 Vibration     1          0.598              1.970              4.223
 Vibration     2          0.604              1.949              3.464
 Vibration     3          0.614              1.915              2.826
 Vibration     4          0.620              1.898              2.622
 Vibration     5          0.633              1.856              2.243
 Vibration     6          0.639              1.836              2.109
 Vibration     7          0.649              1.805              1.930
 Vibration     8          0.668              1.747              1.665
 Vibration     9          0.754              1.501              1.018
 Vibration    10          0.765              1.473              0.967
 Vibration    11          0.827              1.316              0.737
 Vibration    12          0.898              1.155              0.559
 Vibration    13          0.927              1.094              0.502
 Vibration    14          0.962              1.025              0.444

 Optimization completed.
    -- Stationary point found.
 Normal termination of Gaussian 16 at Tue Dec  8 19:14:59 2020.

 ----------------------------------------------------------------------
 # B3LYP/6-311++G(d,p) empiricaldispersion=gd3bj scf=xqc pop=npa geom=c
 heck
 ----------------------------------------------------------------------

 --------------------------------------
 CID_20475176_JID_1148_Energie_neutraal
 --------------------------------------
 Structure from the checkpoint file:  "JID_1148.chk"
 Charge =  0 Multiplicity = 1

 SCF Done:  E(RB3LYP) =  -531.691115483     A.U. after   14 cycles
 Normal termination of Gaussian 16 at Tue Dec  8 19:16:14 2020.

 ----------------------------------------------------------------------
 # B3LYP/6-311++G(d,p) empiricaldispersion=gd3bj scf=xqc pop=npa geom=c
 heck
 ----------------------------------------------------------------------

 ------------------------------------
 CID_20475176_JID_1148_Energie_kation
 ------------------------------------
 Structure from the checkpoint file:  "JID_1148.chk"
 Charge =  1 Multiplicity = 2

 SCF Done:  E(UB3LYP) =  -531.381249325     A.U. after   19 cycles
 Normal termination of Gaussian 16 at Tue Dec  8 19:18:54 2020.
 Gaussian 16:  ES64L-G16RevA.03 25-Dec-2016

 ----------------------------------------------------------------------
 # B3LYP/6-311++G(d,p) empiricaldispersion=gd3bj scf=xqc pop=npa geom=c
 heck
 ----------------------------------------------------------------------

 -----------------------------------
 CID_20475176_JID_1148_Energie_anion
 -----------------------------------
 Structure from the checkpoint file:  "JID_1148.chk"
 Charge = -1 Multiplicity = 2

                         Standard orientation:
 ---------------------------------------------------------------------
 Center     Atomic      Atomic             Coordinates (Angstroms)
 Number     Number       Type             X           Y           Z
 ---------------------------------------------------------------------
      1          6           0        3.477990   -0.543066   -0.000263
      2          6           0        2.634607    0.492315    0.000154
      3          7           0        1.231152    0.445861    0.000162
      4          6           0        0.415495    1.648661    0.000070
      5          6           0       -1.012980    1.114888   -0.000102
      6          8           0       -2.028799    1.776711   -0.000119
      7          7           0       -0.903792   -0.267514   -0.000025
      8          6           0        0.456887   -0.692452   -0.000097
      9          8           0        0.816416   -1.851322    0.000112
     10          6           0       -1.943308   -1.219166    0.000098
     11          6           0       -3.247975   -0.943716   -0.000030
     12          1           0        3.139636   -1.569683   -0.000644
     13          1           0        4.543544   -0.343598   -0.000182
     14          1           0        3.000253    1.515206    0.000580
     15          1           0        0.585378    2.265713    0.890103
     16          1           0        0.585630    2.265747   -0.889886
     17          1           0       -1.546672   -2.228155    0.000293
     18          1           0       -3.951927   -1.768394    0.000075
     19          1           0       -3.632595    0.066843   -0.000222
 ---------------------------------------------------------------------

 SCF Done:  E(UB3LYP) =  -531.676121043     A.U. after   33 cycles
 SCF Done:  E(UB3LYP) =  -531.676121043     a.u. after    1 cycles

 The electronic state is 2-A.
 Alpha  occ. eigenvalues --  -18.98338 -18.94972 -14.24135 -14.23217 -10.18678
 Alpha  occ. eigenvalues --  -10.11925 -10.09343 -10.09079 -10.06481 -10.03417
 Alpha  occ. eigenvalues --  -10.01103  -0.95329  -0.90494  -0.85566  -0.80398
 Alpha  occ. eigenvalues --   -0.66649  -0.61770  -0.59905  -0.53589  -0.50416
 Alpha  occ. eigenvalues --   -0.44925  -0.40628  -0.38436  -0.37913  -0.36732
 Alpha  occ. eigenvalues --   -0.33180  -0.31335  -0.30485  -0.29884  -0.29318
 Alpha  occ. eigenvalues --   -0.28109  -0.27390  -0.26637  -0.24690  -0.20370
 Alpha  occ. eigenvalues --   -0.19294  -0.16646  -0.12329  -0.12248  -0.09842
 Alpha  occ. eigenvalues --    0.06774
 Alpha virt. eigenvalues --    0.08114   0.09672   0.09975   0.09995   0.11040
 Alpha virt. eigenvalues --    0.11906   0.12714   0.14184   0.14290   0.14480
 Alpha virt. eigenvalues --    0.15630   0.16815   0.17524   0.18511   0.19226

  Beta  occ. eigenvalues --  -18.98358 -18.94657 -14.24154 -14.23251 -10.18679
  Beta  occ. eigenvalues --  -10.11519 -10.09284 -10.09106 -10.06378 -10.03294
  Beta  occ. eigenvalues --  -10.00863  -0.95297  -0.89987  -0.85447  -0.80255
  Beta  occ. eigenvalues --   -0.66372  -0.61476  -0.59659  -0.53275  -0.50074
  Beta  occ. eigenvalues --   -0.44671  -0.40401  -0.38237  -0.37476  -0.36624
  Beta  occ. eigenvalues --   -0.33085  -0.30985  -0.30411  -0.29724  -0.29132
  Beta  occ. eigenvalues --   -0.27778  -0.26559  -0.26339  -0.24526  -0.20029
  Beta  occ. eigenvalues --   -0.18022  -0.16644  -0.12080  -0.11633  -0.08885
  Beta virt. eigenvalues --    0.08351   0.09890   0.10024   0.10564   0.11458
  Beta virt. eigenvalues --    0.11813   0.12668   0.13303   0.14273   0.14384
  Beta virt. eigenvalues --    0.15018   0.15482   0.16982   0.17623   0.18449

 Mulliken charges and spin densities:
               1          2
     1  C   -0.540185   0.133825
     2  C    0.090919   0.083706
     3  N   -0.087734   0.002276
     4  C    0.119038  -0.443475
     5  C    0.017908   0.205301
     6  O   -0.426739   0.117961
     7  N    0.011419  -0.009152
     8  C    0.031958   0.002862
     9  O   -0.373104  -0.006418
    10  C    0.106923   0.006593
    11  C   -0.561183   0.279478
    12  H    0.155983  -0.006797
    13  H    0.119086  -0.004038
    14  H    0.159124  -0.011340
    15  H   -0.129663   0.340801
    16  H   -0.129626   0.340764
    17  H    0.172874  -0.008192
    18  H    0.098778  -0.010613
    19  H    0.164225  -0.013542
 Sum of Mulliken charges =  -1.00000   1.00000

 Dipole moment (field-independent basis, Debye):
    X=              2.4756    Y=             -1.5839    Z=              0.0001  Tot=              2.9390
 Quadrupole moment (field-independent basis, Debye-Ang):
   XX=           -100.3724   YY=            -91.5984   ZZ=            -79.5488
   XY=              6.4584   XZ=              0.0003   YZ=              0.0029

 Summary of Natural Population Analysis:

                                       Natural Population
                Natural  -----------------------------------------------
    Atom  No    Charge         Core      Valence    Rydberg      Total
 -----------------------------------------------------------------------
      C    1   -0.20724      0.99960     2.20085    0.00679     3.20724
      C    2    0.01313      0.99957     1.97475    0.01255     2.98687
      N    3   -0.25253      0.99962     2.74375    0.00917     3.75253
      C    4   -0.11807      0.99961     2.10941    0.00904     3.11807
      C    5    0.39276      0.99969     1.58452    0.02303     2.60724
      O    6   -0.28103      0.99987     3.27578    0.00537     4.28103
      N    7   -0.26155      0.99959     2.75259    0.00937     3.76155
      C    8    0.42217      0.99968     1.55644    0.02172     2.57783
      O    9   -0.32643      0.99987     3.32060    0.00597     4.32643
      C   10    0.00482      0.99957     1.98390    0.01171     2.99518
      C   11   -0.17614      0.99960     2.16888    0.00766     3.17614
      H   12    0.10736      0.00000     0.39154    0.00111     0.39264
      H   13    0.08808      0.00000     0.41110    0.00082     0.41192
      H   14    0.09154      0.00000     0.40757    0.00088     0.40846
      H   15    0.10736      0.00000     0.39040    0.00224     0.39264
      H   16    0.10736      0.00000     0.39040    0.00224     0.39264
      H   17    0.09831      0.00000     0.40049    0.00121     0.40169
      H   18    0.08431      0.00000     0.41479    0.00090     0.41569
      H   19    0.10581      0.00000     0.39319    0.00100     0.39419
 =======================================================================
   * Total *   -0.00000     10.99627    28.87094    0.13279    40.00000

 Normal termination of Gaussian 16 at Tue Dec  8 19:23:30 2020.
