 Gaussian 16, Revision A.03,

 -----------------------------------------------------------
 # opt freq B3LYP/6-31G(d) empiricaldispersion=gd3bj scf=xqc
 -----------------------------------------------------------

 ------------------------------
 CID_64764755_JID_8957_neutraal
 ------------------------------
 Symbolic Z-matrix:
 Charge =  0 Multiplicity = 1

 SCF Done:  E(RB3LYP) =  -735.150187616     A.U. after   14 cycles
 SCF Done:  E(RB3LYP) =  -735.153893664     A.U. after   12 cycles
 SCF Done:  E(RB3LYP) =  -735.155294698     A.U. after   12 cycles
 SCF Done:  E(RB3LYP) =  -735.155971775     A.U. after   15 cycles
 SCF Done:  E(RB3LYP) =  -735.157317611     A.U. after   12 cycles
 SCF Done:  E(RB3LYP) =  -735.157788650     A.U. after   12 cycles
 SCF Done:  E(RB3LYP) =  -735.158187950     A.U. after   12 cycles
 SCF Done:  E(RB3LYP) =  -735.158466939     A.U. after   12 cycles
 SCF Done:  E(RB3LYP) =  -735.158655793     A.U. after   11 cycles
 SCF Done:  E(RB3LYP) =  -735.158740812     A.U. after   11 cycles
 SCF Done:  E(RB3LYP) =  -735.159834588     A.U. after   10 cycles
 SCF Done:  E(RB3LYP) =  -735.159847783     A.U. after   10 cycles
 SCF Done:  E(RB3LYP) =  -735.159855571     A.U. after   10 cycles
 SCF Done:  E(RB3LYP) =  -735.159856275     A.U. after    8 cycles
 SCF Done:  E(RB3LYP) =  -735.159856261     A.U. after    7 cycles
 Optimization completed.
    -- Stationary point found.
 Normal termination of Gaussian 16 at Fri Dec 11 23:24:12 2020.

 --------------------------------------------------------------------
 #N Geom=AllCheck Guess=TCheck SCRF=Check GenChk RB3LYP/6-31G(d) Freq
 --------------------------------------------------------------------

 Structure from the checkpoint file:  "JID_8957.chk"
 ------------------------------
 CID_64764755_JID_8957_neutraal
 ------------------------------
 Charge =  0 Multiplicity = 1

 SCF Done:  E(RB3LYP) =  -735.159856261     A.U. after    1 cycles

  Exact polarizability: 189.718 -12.348 166.647 -32.645 -13.418 156.318
 Approx polarizability: 264.497 -25.938 274.139 -61.739 -35.034 256.779

                      1                      2                      3
                      A                      A                      A
 Frequencies --     19.6211                28.6638                35.5248
 Red. masses --      3.6030                 3.7955                 2.7782
 Frc consts  --      0.0008                 0.0018                 0.0021
 IR Inten    --      0.0085                 0.0166                 0.0126

                      4                      5                      6
                      A                      A                      A
 Frequencies --     51.6856                66.3700                84.7037
 Red. masses --      3.3348                 3.0397                 3.6596
 Frc consts  --      0.0052                 0.0079                 0.0155
 IR Inten    --      0.1045                 0.2519                 0.4778

                      7                      8                      9
                      A                      A                      A
 Frequencies --    123.5651               135.9828               167.3273
 Red. masses --      3.3620                 3.6883                 3.9202
 Frc consts  --      0.0302                 0.0402                 0.0647
 IR Inten    --      0.2128                 0.2287                 1.6261

                     10                     11                     12
                      A                      A                      A
 Frequencies --    217.3427               225.2302               234.7560
 Red. masses --      1.3986                 1.4057                 2.1171
 Frc consts  --      0.0389                 0.0420                 0.0687
 IR Inten    --      0.1317                 0.4283                 0.5172

                     13                     14                     15
                      A                      A                      A
 Frequencies --    283.7884               320.2918               329.7512
 Red. masses --      2.5512                 2.2620                 2.8695
 Frc consts  --      0.1211                 0.1367                 0.1838
 IR Inten    --      0.2039                 1.6103                 2.1198

                     16                     17                     18
                      A                      A                      A
 Frequencies --    355.4523               392.7714               419.9759
 Red. masses --      3.1165                 2.2094                 2.9395
 Frc consts  --      0.2320                 0.2008                 0.3055
 IR Inten    --      1.0322                 0.1190                 0.0183

                     19                     20                     21
                      A                      A                      A
 Frequencies --    443.6611               456.6872               476.5071
 Red. masses --      3.5194                 4.4199                 4.3084
 Frc consts  --      0.4082                 0.5431                 0.5764
 IR Inten    --      2.4466                 1.7834                 7.7219

                     22                     23                     24
                      A                      A                      A
 Frequencies --    505.1780               558.8678               565.9028
 Red. masses --      3.6959                 4.2872                 3.3603
 Frc consts  --      0.5557                 0.7889                 0.6340
 IR Inten    --      4.9140                 1.2294                 1.5067

                     25                     26                     27
                      A                      A                      A
 Frequencies --    600.9356               621.1074               659.4570
 Red. masses --      4.5238                 2.7060                 6.5325
 Frc consts  --      0.9625                 0.6151                 1.6738
 IR Inten    --      2.0362                17.5527                 0.1489

                     28                     29                     30
                      A                      A                      A
 Frequencies --    718.9522               735.9861               763.0659
 Red. masses --      3.8816                 4.3955                 1.6048
 Frc consts  --      1.1821                 1.4028                 0.5506
 IR Inten    --      3.1310                 3.6523                16.2558

                     31                     32                     33
                      A                      A                      A
 Frequencies --    772.6110               790.0584               796.0999
 Red. masses --      2.9447                 1.9657                 1.4826
 Frc consts  --      1.0357                 0.7229                 0.5536
 IR Inten    --      5.0140                17.4141                 3.9650

                     34                     35                     36
                      A                      A                      A
 Frequencies --    801.5971               827.3662               840.3410
 Red. masses --      1.1594                 2.7301                 3.1062
 Frc consts  --      0.4389                 1.1011                 1.2924
 IR Inten    --      0.5142                12.4160                17.5827

                     37                     38                     39
                      A                      A                      A
 Frequencies --    857.0493               867.0209               878.5016
 Red. masses --      1.2794                 2.1344                 1.5078
 Frc consts  --      0.5537                 0.9453                 0.6856
 IR Inten    --      0.5386                25.3625                 2.8541

                     40                     41                     42
                      A                      A                      A
 Frequencies --    940.0118               960.5421               969.1968
 Red. masses --      1.3603                 1.3393                 1.3542
 Frc consts  --      0.7082                 0.7280                 0.7495
 IR Inten    --      0.7447                 1.4005                 5.4026

                     43                     44                     45
                      A                      A                      A
 Frequencies --    973.3514               981.4318               986.0957
 Red. masses --      1.2481                 2.3640                 2.3852
 Frc consts  --      0.6967                 1.3416                 1.3665
 IR Inten    --      0.2315                 2.7818                 3.8652

                     46                     47                     48
                      A                      A                      A
 Frequencies --   1006.5967              1011.6396              1046.1444
 Red. masses --      5.3621                 1.9137                 2.8605
 Frc consts  --      3.2011                 1.1539                 1.8445
 IR Inten    --     97.5718                14.8218                 0.8261

                     49                     50                     51
                      A                      A                      A
 Frequencies --   1064.3360              1084.3928              1086.9554
 Red. masses --      1.9076                 1.9891                 1.4326
 Frc consts  --      1.2732                 1.3781                 0.9973
 IR Inten    --      5.2835                 9.4913                 0.2680

                     52                     53                     54
                      A                      A                      A
 Frequencies --   1093.4786              1101.2104              1152.2072
 Red. masses --      1.9121                 1.7157                 1.6255
 Frc consts  --      1.3470                 1.2258                 1.2714
 IR Inten    --     12.7487                 0.8879                29.3999

                     55                     56                     57
                      A                      A                      A
 Frequencies --   1156.7596              1191.2221              1215.4630
 Red. masses --      1.2950                 1.1016                 2.1761
 Frc consts  --      1.0209                 0.9210                 1.8941
 IR Inten    --      2.2162                 0.1693                39.2146

                     58                     59                     60
                      A                      A                      A
 Frequencies --   1220.2188              1239.3217              1244.4736
 Red. masses --      1.1908                 3.8549                 2.1018
 Frc consts  --      1.0447                 3.4884                 1.9178
 IR Inten    --      0.3646                 5.2792                14.1737

                     61                     62                     63
                      A                      A                      A
 Frequencies --   1252.5299              1284.3211              1286.3740
 Red. masses --      2.4548                 1.3953                 1.3575
 Frc consts  --      2.2691                 1.3560                 1.3235
 IR Inten    --     54.5119                 0.7813                 4.5591

                     64                     65                     66
                      A                      A                      A
 Frequencies --   1295.3025              1321.6553              1363.9469
 Red. masses --      1.4365                 1.6645                 2.1414
 Frc consts  --      1.4201                 1.7131                 2.3472
 IR Inten    --     43.7248                 1.9247                 0.4672

                     67                     68                     69
                      A                      A                      A
 Frequencies --   1366.5318              1371.8391              1372.4142
 Red. masses --      1.4310                 1.5231                 3.6467
 Frc consts  --      1.5745                 1.6888                 4.0469
 IR Inten    --      1.7745                 3.6486                 1.0277

                     70                     71                     72
                      A                      A                      A
 Frequencies --   1381.7594              1412.2360              1431.2146
 Red. masses --      1.5295                 1.2971                 1.2269
 Frc consts  --      1.7205                 1.5242                 1.4807
 IR Inten    --      3.6127                20.6827                 1.4148

                     73                     74                     75
                      A                      A                      A
 Frequencies --   1435.7749              1470.8398              1498.2050
 Red. masses --      1.2180                 2.5989                 2.1578
 Frc consts  --      1.4793                 3.3126                 2.8537
 IR Inten    --      1.1396                 7.4986                12.6126

                     76                     77                     78
                      A                      A                      A
 Frequencies --   1517.1146              1518.6187              1523.8795
 Red. masses --      1.1129                 1.0796                 1.1538
 Frc consts  --      1.5091                 1.4669                 1.5786
 IR Inten    --      0.5861                 1.5512                 2.7117

                     79                     80                     81
                      A                      A                      A
 Frequencies --   1525.7525              1527.3849              1538.4624
 Red. masses --      1.0408                 1.0560                 1.0872
 Frc consts  --      1.4276                 1.4515                 1.5162
 IR Inten    --      7.6435                 8.3735                 1.6097

                     82                     83                     84
                      A                      A                      A
 Frequencies --   1541.0105              1543.4571              1567.4679
 Red. masses --      1.7376                 1.2478                 2.4768
 Frc consts  --      2.4312                 1.7514                 3.5854
 IR Inten    --     31.5501                16.9265                 6.7207

                     85                     86                     87
                      A                      A                      A
 Frequencies --   1635.5265              1640.3959              1661.5052
 Red. masses --      6.1585                 6.1478                 6.0669
 Frc consts  --      9.7059                 9.7470                 9.8678
 IR Inten    --      0.4049                 7.2522                 7.9378

                     88                     89                     90
                      A                      A                      A
 Frequencies --   1677.7165              3046.6211              3049.0619
 Red. masses --      5.8417                 1.0592                 1.0351
 Frc consts  --      9.6878                 5.7925                 5.6698
 IR Inten    --      7.2213                35.1676                32.1779

                     91                     92                     93
                      A                      A                      A
 Frequencies --   3050.2152              3050.9697              3057.3013
 Red. masses --      1.0380                 1.0638                 1.0655
 Frc consts  --      5.6901                 5.8343                 5.8681
 IR Inten    --     48.0835                34.8705                22.9526

                     94                     95                     96
                      A                      A                      A
 Frequencies --   3081.4647              3105.0637              3119.5614
 Red. masses --      1.1040                 1.0996                 1.0994
 Frc consts  --      6.1762                 6.2466                 6.3036
 IR Inten    --      9.2245                 8.0977                54.7121

                     97                     98                     99
                      A                      A                      A
 Frequencies --   3119.9912              3123.5841              3126.2214
 Red. masses --      1.1022                 1.1035                 1.1003
 Frc consts  --      6.3212                 6.3436                 6.3359
 IR Inten    --     28.6932                32.2891                28.4267

                    100                    101                    102
                      A                      A                      A
 Frequencies --   3140.3763              3172.5844              3175.9221
 Red. masses --      1.1021                 1.0867                 1.0865
 Frc consts  --      6.4036                 6.4444                 6.4570
 IR Inten    --     21.7173                12.0931                 6.8983

                    103                    104                    105
                      A                      A                      A
 Frequencies --   3177.5127              3187.0383              3190.0156
 Red. masses --      1.0878                 1.0877                 1.0942
 Frc consts  --      6.4713                 6.5091                 6.5607
 IR Inten    --     13.5510                 8.3395                26.3401

                    106                    107                    108
                      A                      A                      A
 Frequencies --   3199.2239              3200.7396              3210.1623
 Red. masses --      1.0922                 1.0938                 1.0975
 Frc consts  --      6.5862                 6.6020                 6.6635
 IR Inten    --     28.0544                 9.2352                22.3738

 - Thermochemistry -
 -------------------
 Temperature   298.150 Kelvin.  Pressure   1.00000 Atm.
 Atom     1 has atomic number  6 and mass  12.00000

 Molecular mass:   240.15142 amu.
 Principal axes and moments of inertia in atomic units:
                           1         2         3
     Eigenvalues --  2829.211966591.228116909.48611
           X            0.99985  -0.01725  -0.00249
           Y            0.01733   0.99924   0.03496
           Z            0.00188  -0.03499   0.99939
 This molecule is an asymmetric top.
 Rotational symmetry number  1.
 Warning -- assumption of classical behavior for rotation
           may cause significant error
 Rotational temperatures (Kelvin)      0.03061     0.01314     0.01254
 Rotational constants (GHZ):           0.63790     0.27381     0.26120
 Zero-point vibrational energy     863115.7 (Joules/Mol)
                                  206.28960 (Kcal/Mol)
 Warning -- explicit consideration of  25 degrees of freedom as
           vibrations may cause significant error
 Vibrational temperatures:     28.23    41.24    51.11    74.36    95.49
          (Kelvin)            121.87   177.78   195.65   240.75   312.71
                              324.06   337.76   408.31   460.83   474.44
                              511.42   565.11   604.25   638.33   657.07
                              685.59   726.84   804.09   814.21   864.61
                              893.64   948.81  1034.41  1058.92  1097.88
                             1111.61  1136.72  1145.41  1153.32  1190.40
                             1209.06  1233.10  1247.45  1263.97  1352.47
                             1382.01  1394.46  1400.44  1412.06  1418.77
                             1448.27  1455.52  1505.17  1531.34  1560.20
                             1563.89  1573.27  1584.40  1657.77  1664.32
                             1713.90  1748.78  1755.62  1783.11  1790.52
                             1802.11  1847.85  1850.81  1863.65  1901.57
                             1962.42  1966.13  1973.77  1974.60  1988.04
                             2031.89  2059.20  2065.76  2116.21  2155.58
                             2182.79  2184.95  2192.52  2195.22  2197.57
                             2213.50  2217.17  2220.69  2255.24  2353.16
                             2360.16  2390.54  2413.86  4383.41  4386.92
                             4388.58  4389.66  4398.77  4433.54  4467.49
                             4488.35  4488.97  4494.14  4497.94  4518.30
                             4564.64  4569.44  4571.73  4585.44  4589.72
                             4602.97  4605.15  4618.71

 Zero-point correction=                           0.328743 (Hartree/Particle)
 Thermal correction to Energy=                    0.345852
 Thermal correction to Enthalpy=                  0.346796
 Thermal correction to Gibbs Free Energy=         0.281562
 Sum of electronic and zero-point Energies=           -734.831113
 Sum of electronic and thermal Energies=              -734.814004
 Sum of electronic and thermal Enthalpies=            -734.813060
 Sum of electronic and thermal Free Energies=         -734.878294

                     E (Thermal)             CV                S
                      KCal/Mol        Cal/Mol-Kelvin    Cal/Mol-Kelvin
 Total                  217.026             65.583            137.298
 Electronic               0.000              0.000              0.000
 Translational            0.889              2.981             42.329
 Rotational               0.889              2.981             33.221
 Vibrational            215.248             59.621             61.747
 Vibration     1          0.593              1.986              6.672
 Vibration     2          0.593              1.984              5.920
 Vibration     3          0.594              1.982              5.494
 Vibration     4          0.596              1.977              4.752
 Vibration     5          0.598              1.970              4.258
 Vibration     6          0.601              1.960              3.779
 Vibration     7          0.610              1.929              3.044
 Vibration     8          0.614              1.917              2.860
 Vibration     9          0.624              1.883              2.465
 Vibration    10          0.646              1.815              1.981
 Vibration    11          0.650              1.803              1.917
 Vibration    12          0.655              1.788              1.842
 Vibration    13          0.682              1.704              1.511
 Vibration    14          0.706              1.635              1.309
 Vibration    15          0.713              1.616              1.261
 Vibration    16          0.731              1.564              1.142
 Vibration    17          0.760              1.486              0.990
 Vibration    18          0.783              1.427              0.892
 Vibration    19          0.803              1.375              0.815
 Vibration    20          0.815              1.346              0.776
 Vibration    21          0.833              1.302              0.720
 Vibration    22          0.860              1.239              0.645
 Vibration    23          0.914              1.120              0.526
 Vibration    24          0.922              1.105              0.512
 Vibration    25          0.959              1.030              0.448

 Optimization completed.
    -- Stationary point found.
 Normal termination of Gaussian 16 at Fri Dec 11 23:42:56 2020.

 ----------------------------------------------------------------------
 # B3LYP/6-311++G(d,p) empiricaldispersion=gd3bj scf=xqc pop=npa geom=c
 heck
 ----------------------------------------------------------------------

 --------------------------------------
 CID_64764755_JID_8957_Energie_neutraal
 --------------------------------------
 Structure from the checkpoint file:  "JID_8957.chk"
 Charge =  0 Multiplicity = 1

 SCF Done:  E(RB3LYP) =  -735.351586949     A.U. after   16 cycles
 Normal termination of Gaussian 16 at Fri Dec 11 23:51:45 2020.

 ----------------------------------------------------------------------
 # B3LYP/6-311++G(d,p) empiricaldispersion=gd3bj scf=xqc pop=npa geom=c
 heck
 ----------------------------------------------------------------------

 ------------------------------------
 CID_64764755_JID_8957_Energie_kation
 ------------------------------------
 Structure from the checkpoint file:  "JID_8957.chk"
 Charge =  1 Multiplicity = 2

 SCF Done:  E(UB3LYP) =  -735.059990318     A.U. after   28 cycles
 Normal termination of Gaussian 16 at Sat Dec 12 00:13:51 2020.
 Gaussian 16:  ES64L-G16RevA.03 25-Dec-2016

 ----------------------------------------------------------------------
 # B3LYP/6-311++G(d,p) empiricaldispersion=gd3bj scf=xqc pop=npa geom=c
 heck
 ----------------------------------------------------------------------

 -----------------------------------
 CID_64764755_JID_8957_Energie_anion
 -----------------------------------
 Structure from the checkpoint file:  "JID_8957.chk"
 Charge = -1 Multiplicity = 2

                         Standard orientation:
 ---------------------------------------------------------------------
 Center     Atomic      Atomic             Coordinates (Angstroms)
 Number     Number       Type             X           Y           Z
 ---------------------------------------------------------------------
      1          6           0       -4.058353    2.110291    0.063601
      2          6           0       -4.241641    0.757495   -0.644607
      3          6           0       -3.011350   -0.111415   -0.526212
      4          6           0       -2.850111   -0.984623    0.556889
      5          6           0       -1.685361   -1.733970    0.703046
      6          6           0       -0.650686   -1.636534   -0.233615
      7          6           0       -0.813982   -0.776604   -1.325248
      8          6           0       -1.977556   -0.023610   -1.465870
      9          6           0        0.651909   -2.358417   -0.012942
     10          8           0        1.584730   -1.557921    0.744119
     11          6           0        2.095822   -0.464070    0.068414
     12          6           0        2.986404   -0.655716   -0.989841
     13          6           0        3.527376    0.442842   -1.656333
     14          6           0        3.179253    1.732945   -1.256074
     15          6           0        2.295110    1.911295   -0.192114
     16          6           0        1.729554    0.825578    0.486423
     17          6           0        0.784232    1.032460    1.645537
     18          6           0        1.437418    0.731761    3.003731
     19          1           0       -3.851468    1.965183    1.129652
     20          1           0       -4.956800    2.730539   -0.030613
     21          1           0       -3.214072    2.661181   -0.365327
     22          1           0       -5.105847    0.236412   -0.214647
     23          1           0       -4.472334    0.930212   -1.702984
     24          1           0       -3.645896   -1.074125    1.292842
     25          1           0       -1.571389   -2.397095    1.557395
     26          1           0       -0.018938   -0.687315   -2.060160
     27          1           0       -2.086269    0.644518   -2.317082
     28          1           0        0.509278   -3.258456    0.590002
     29          1           0        1.106681   -2.647592   -0.968520
     30          1           0        3.259171   -1.668098   -1.273388
     31          1           0        4.222645    0.289559   -2.476909
     32          1           0        3.595713    2.596317   -1.767026
     33          1           0        2.023421    2.917213    0.119355
     34          1           0        0.428796    2.069726    1.628989
     35          1           0       -0.095032    0.393337    1.520800
     36          1           0        2.315303    1.367171    3.166311
     37          1           0        0.731105    0.908947    3.823077
     38          1           0        1.759861   -0.312524    3.046575
 ---------------------------------------------------------------------

 SCF Done:  E(UB3LYP) =  -735.338876232     A.U. after   33 cycles
 SCF Done:  E(UB3LYP) =  -735.338876232     a.u. after    1 cycles

 The electronic state is 2-A.
 Alpha  occ. eigenvalues --  -19.04436 -10.13370 -10.13171 -10.08785 -10.08513
 Alpha  occ. eigenvalues --  -10.08261 -10.08213 -10.08194 -10.07849 -10.07661
 Alpha  occ. eigenvalues --  -10.07568 -10.07563 -10.07397 -10.07276 -10.07213
 Alpha  occ. eigenvalues --  -10.07197 -10.06861 -10.06171  -0.95943  -0.76745
 Alpha  occ. eigenvalues --   -0.76217  -0.69924  -0.69591  -0.66007  -0.64831
 Alpha  occ. eigenvalues --   -0.64134  -0.62928  -0.58545  -0.54253  -0.53092
 Alpha  occ. eigenvalues --   -0.51335  -0.50727  -0.48675  -0.47395  -0.43229
 Alpha  occ. eigenvalues --   -0.40584  -0.39716  -0.38489  -0.38122  -0.36585
 Alpha  occ. eigenvalues --   -0.35807  -0.34922  -0.33993  -0.33332  -0.33054
 Alpha  occ. eigenvalues --   -0.32552  -0.31884  -0.30872  -0.30352  -0.29020
 Alpha  occ. eigenvalues --   -0.28220  -0.27469  -0.26692  -0.25794  -0.25452
 Alpha  occ. eigenvalues --   -0.25123  -0.24871  -0.24193  -0.23623  -0.23354
 Alpha  occ. eigenvalues --   -0.19224  -0.16232  -0.15847  -0.14945  -0.14102
 Alpha  occ. eigenvalues --    0.04167
 Alpha virt. eigenvalues --    0.05763   0.06594   0.06652   0.07112   0.07705
 Alpha virt. eigenvalues --    0.07807   0.08199   0.08251   0.08579   0.08681
 Alpha virt. eigenvalues --    0.09305   0.09374   0.10280   0.10722   0.10893

  Beta  occ. eigenvalues --  -19.04420 -10.13368 -10.13160 -10.08787 -10.08500
  Beta  occ. eigenvalues --  -10.08245 -10.08193 -10.08183 -10.07785 -10.07654
  Beta  occ. eigenvalues --  -10.07558 -10.07497 -10.07376 -10.07264 -10.07206
  Beta  occ. eigenvalues --  -10.07171 -10.06856 -10.06129  -0.95912  -0.76703
  Beta  occ. eigenvalues --   -0.76141  -0.69832  -0.69553  -0.65962  -0.64764
  Beta  occ. eigenvalues --   -0.64084  -0.62885  -0.58483  -0.54229  -0.53013
  Beta  occ. eigenvalues --   -0.51290  -0.50685  -0.48640  -0.47309  -0.43183
  Beta  occ. eigenvalues --   -0.40526  -0.39682  -0.38438  -0.38073  -0.36512
  Beta  occ. eigenvalues --   -0.35755  -0.34893  -0.33965  -0.33305  -0.33007
  Beta  occ. eigenvalues --   -0.32514  -0.31839  -0.30832  -0.30285  -0.28994
  Beta  occ. eigenvalues --   -0.28146  -0.27429  -0.26649  -0.25748  -0.25369
  Beta  occ. eigenvalues --   -0.25087  -0.24836  -0.24137  -0.23582  -0.23308
  Beta  occ. eigenvalues --   -0.19182  -0.16143  -0.15741  -0.14670  -0.13982
  Beta virt. eigenvalues --    0.06078   0.06621   0.06887   0.07024   0.07346
  Beta virt. eigenvalues --    0.08072   0.08257   0.08370   0.08535   0.08752
  Beta virt. eigenvalues --    0.08895   0.09702   0.09715   0.10552   0.10846

 Mulliken charges and spin densities:
               1          2
     1  C    0.883975  -1.449232
     2  C    0.075723  -0.567557
     3  C    0.663508   0.246648
     4  C   -1.161672   0.577579
     5  C    0.465350  -0.391032
     6  C    1.001777  -0.225461
     7  C   -0.769393   0.317051
     8  C   -0.453385   0.077978
     9  C    0.321360  -1.358216
    10  O   -0.014274  -0.003987
    11  C   -1.951211   0.574521
    12  C    0.228865  -0.043419
    13  C    1.015235  -1.136265
    14  C   -0.117381  -0.326525
    15  C    0.126259   0.042817
    16  C    1.183563   0.394515
    17  C   -0.454424  -0.330572
    18  C   -0.426495  -0.200256
    19  H   -0.074650   0.207258
    20  H   -0.474453   0.612080
    21  H   -0.018466   0.155785
    22  H   -0.234728   0.381740
    23  H   -0.197633   0.339661
    24  H   -0.388477   0.560390
    25  H   -0.242378   0.405027
    26  H   -0.138128   0.315570
    27  H   -0.159495   0.340469
    28  H    0.008103   0.133267
    29  H    0.003554   0.146675
    30  H   -0.159323   0.319846
    31  H   -0.330897   0.500562
    32  H   -0.192216   0.350279
    33  H    0.005067   0.152539
    34  H   -0.017437   0.148314
    35  H    0.707622  -0.426084
    36  H    0.096030   0.030385
    37  H    0.023337   0.098097
    38  H    0.167189   0.029549
 Sum of Mulliken charges =  -1.00000   1.00000

 Dipole moment (field-independent basis, Debye):
    X=              4.6127    Y=             -1.7655    Z=              1.7468  Tot=              5.2388
 Quadrupole moment (field-independent basis, Debye-Ang):
   XX=           -206.1111   YY=           -150.7653   ZZ=           -148.0890
   XY=              9.6741   XZ=              6.2168   YZ=              3.1285

 Summary of Natural Population Analysis:

                                       Natural Population
                Natural  -----------------------------------------------
    Atom  No    Charge         Core      Valence    Rydberg      Total
 -----------------------------------------------------------------------
      C    1   -0.27889      0.99966     2.27436    0.00487     3.27889
      C    2   -0.19860      0.99961     2.18961    0.00938     3.19860
      C    3   -0.00017      0.99951     1.99048    0.01019     3.00017
      C    4   -0.09920      0.99951     2.09007    0.00962     3.09920
      C    5   -0.09453      0.99952     2.08539    0.00962     3.09453
      C    6   -0.03641      0.99950     2.02755    0.00937     3.03641
      C    7   -0.08966      0.99952     2.08127    0.00888     3.08966
      C    8   -0.09939      0.99951     2.09071    0.00918     3.09939
      C    9   -0.01271      0.99950     2.00079    0.01241     3.01271
      O   10   -0.29321      0.99987     3.28424    0.00910     4.29321
      C   11    0.15450      0.99931     1.83167    0.01452     2.84550
      C   12   -0.12033      0.99951     2.11078    0.01005     3.12033
      C   13   -0.10163      0.99957     2.09210    0.00996     3.10163
      C   14   -0.10827      0.99956     2.09867    0.01004     3.10827
      C   15   -0.09395      0.99952     2.08462    0.00981     3.09395
      C   16   -0.02651      0.99945     2.01675    0.01031     3.02651
      C   17   -0.20049      0.99960     2.19236    0.00853     3.20049
      C   18   -0.28082      0.99966     2.27719    0.00398     3.28082
      H   19    0.09676      0.00000     0.40206    0.00118     0.40324
      H   20    0.09922      0.00000     0.39893    0.00185     0.40078
      H   21    0.09726      0.00000     0.40155    0.00120     0.40274
      H   22    0.10003      0.00000     0.39837    0.00160     0.39997
      H   23    0.09937      0.00000     0.39921    0.00141     0.40063
      H   24    0.09948      0.00000     0.39904    0.00147     0.40052
      H   25    0.09915      0.00000     0.39980    0.00106     0.40085
      H   26    0.10302      0.00000     0.39533    0.00164     0.39698
      H   27    0.09954      0.00000     0.39909    0.00137     0.40046
      H   28    0.09317      0.00000     0.40562    0.00121     0.40683
      H   29    0.08643      0.00000     0.41218    0.00139     0.41357
      H   30    0.10435      0.00000     0.39447    0.00118     0.39565
      H   31    0.10109      0.00000     0.39779    0.00113     0.39891
      H   32    0.10050      0.00000     0.39861    0.00089     0.39950
      H   33    0.09926      0.00000     0.39973    0.00101     0.40074
      H   34    0.09671      0.00000     0.40207    0.00122     0.40329
      H   35    0.11229      0.00000     0.38538    0.00233     0.38771
      H   36    0.09312      0.00000     0.40596    0.00092     0.40688
      H   37    0.09554      0.00000     0.40365    0.00081     0.40446
      H   38    0.10398      0.00000     0.39496    0.00107     0.39602
 =======================================================================
   * Total *    0.00000     17.99188    46.81238    0.19574    65.00000

 Normal termination of Gaussian 16 at Sat Dec 12 00:39:21 2020.
