 Gaussian 16, Revision A.03,

 -----------------------------------------------------------
 # opt freq B3LYP/6-31G(d) empiricaldispersion=gd3bj scf=xqc
 -----------------------------------------------------------

 --------------------------------
 CID_131156754_JID_10105_neutraal
 --------------------------------
 Symbolic Z-matrix:
 Charge =  0 Multiplicity = 1

 SCF Done:  E(RB3LYP) =  -859.475329666     A.U. after   14 cycles
 SCF Done:  E(RB3LYP) =  -859.482542653     A.U. after   13 cycles
 SCF Done:  E(RB3LYP) =  -859.482959567     A.U. after   13 cycles
 SCF Done:  E(RB3LYP) =  -859.484051227     A.U. after   14 cycles
 SCF Done:  E(RB3LYP) =  -859.484386612     A.U. after   12 cycles
 SCF Done:  E(RB3LYP) =  -859.484655300     A.U. after   12 cycles
 SCF Done:  E(RB3LYP) =  -859.484880072     A.U. after   12 cycles
 SCF Done:  E(RB3LYP) =  -859.484988745     A.U. after   12 cycles
 SCF Done:  E(RB3LYP) =  -859.485128302     A.U. after   11 cycles
 SCF Done:  E(RB3LYP) =  -859.485162783     A.U. after   11 cycles
 SCF Done:  E(RB3LYP) =  -859.485194051     A.U. after   11 cycles
 SCF Done:  E(RB3LYP) =  -859.485196779     A.U. after    9 cycles
 SCF Done:  E(RB3LYP) =  -859.485198427     A.U. after    9 cycles
 SCF Done:  E(RB3LYP) =  -859.485198757     A.U. after    8 cycles
 SCF Done:  E(RB3LYP) =  -859.485198845     A.U. after    8 cycles
 Optimization completed.
    -- Stationary point found.
 Normal termination of Gaussian 16 at Sun Dec 13 16:38:19 2020.

 --------------------------------------------------------------------
 #N Geom=AllCheck Guess=TCheck SCRF=Check GenChk RB3LYP/6-31G(d) Freq
 --------------------------------------------------------------------

 Structure from the checkpoint file:  "JID_10105.chk"
 --------------------------------
 CID_131156754_JID_10105_neutraal
 --------------------------------
 Charge =  0 Multiplicity = 1

 SCF Done:  E(RB3LYP) =  -859.485198845     A.U. after    1 cycles

  Exact polarizability: 233.274  -5.894 191.780   0.092  -3.196 133.915
 Approx polarizability: 307.156  -0.929 327.166   1.664  -7.856 226.219

                      1                      2                      3
                      A                      A                      A
 Frequencies --     15.0999                23.2759                33.4971
 Red. masses --      4.8775                 4.1914                 3.9595
 Frc consts  --      0.0007                 0.0013                 0.0026
 IR Inten    --      0.3673                 0.7497                 0.2606

                      4                      5                      6
                      A                      A                      A
 Frequencies --     53.0591                79.6715                97.1881
 Red. masses --      4.8347                 4.9714                 3.6597
 Frc consts  --      0.0080                 0.0186                 0.0204
 IR Inten    --      0.6844                 1.3668                 3.9881

                      7                      8                      9
                      A                      A                      A
 Frequencies --    115.1596               161.1359               187.9650
 Red. masses --      2.3129                 4.7396                 4.2555
 Frc consts  --      0.0181                 0.0725                 0.0886
 IR Inten    --      0.9252                 0.2918                 3.7495

                     10                     11                     12
                      A                      A                      A
 Frequencies --    219.5157               247.0645               284.1780
 Red. masses --      3.4921                 3.9567                 4.1868
 Frc consts  --      0.0991                 0.1423                 0.1992
 IR Inten    --      5.7978                 5.2376                 3.1913

                     13                     14                     15
                      A                      A                      A
 Frequencies --    316.3090               344.9657               373.8133
 Red. masses --      4.7224                 3.1702                 5.8531
 Frc consts  --      0.2784                 0.2223                 0.4819
 IR Inten    --      0.1735                 2.2334                 4.1763

                     16                     17                     18
                      A                      A                      A
 Frequencies --    411.2534               415.5782               420.0558
 Red. masses --      1.7359                 2.9346                 2.6797
 Frc consts  --      0.1730                 0.2986                 0.2786
 IR Inten    --     39.9784                 4.8266                24.0403

                     19                     20                     21
                      A                      A                      A
 Frequencies --    439.3718               462.4774               480.8771
 Red. masses --      2.1669                 3.2514                 3.3738
 Frc consts  --      0.2465                 0.4097                 0.4597
 IR Inten    --     16.1805                 2.3827                 3.7141

                     22                     23                     24
                      A                      A                      A
 Frequencies --    535.9569               555.7843               574.1582
 Red. masses --      1.8866                 2.4927                 2.8717
 Frc consts  --      0.3193                 0.4537                 0.5578
 IR Inten    --     31.7070                49.5590                 3.8954

                     25                     26                     27
                      A                      A                      A
 Frequencies --    599.6281               635.3167               639.4251
 Red. masses --      4.8963                 4.4578                 3.0384
 Frc consts  --      1.0373                 1.0601                 0.7319
 IR Inten    --      2.3237                15.8395                43.8278

                     28                     29                     30
                      A                      A                      A
 Frequencies --    648.2149               672.9531               690.9339
 Red. masses --      2.4533                 4.9497                 3.4280
 Frc consts  --      0.6073                 1.3207                 0.9642
 IR Inten    --     55.6425                34.1438                 7.9631

                     31                     32                     33
                      A                      A                      A
 Frequencies --    714.7470               717.6274               750.4587
 Red. masses --      3.1982                 2.8490                 2.2666
 Frc consts  --      0.9626                 0.8645                 0.7521
 IR Inten    --      8.6843                28.1344               131.6682

                     34                     35                     36
                      A                      A                      A
 Frequencies --    758.6167               800.1520               820.4699
 Red. masses --      2.0655                 3.0326                 3.9122
 Frc consts  --      0.7003                 1.1440                 1.5517
 IR Inten    --     46.6785                12.8288                 3.4688

                     37                     38                     39
                      A                      A                      A
 Frequencies --    827.8669               840.5535               867.5925
 Red. masses --      1.5419                 4.1491                 1.5597
 Frc consts  --      0.6226                 1.7272                 0.6917
 IR Inten    --     35.8773                14.1807                 5.2334

                     40                     41                     42
                      A                      A                      A
 Frequencies --    868.3061               900.3814               915.7859
 Red. masses --      1.4773                 1.5157                 1.7004
 Frc consts  --      0.6562                 0.7240                 0.8402
 IR Inten    --      7.0168                17.2848                 6.0748

                     43                     44                     45
                      A                      A                      A
 Frequencies --    928.8000               931.5941               964.8726
 Red. masses --      1.6259                 1.5448                 2.7575
 Frc consts  --      0.8264                 0.7899                 1.5125
 IR Inten    --      1.8719                 1.5380                14.5274

                     46                     47                     48
                      A                      A                      A
 Frequencies --    974.4559               983.0198               997.9252
 Red. masses --      1.3410                 2.4714                 1.2711
 Frc consts  --      0.7503                 1.4071                 0.7458
 IR Inten    --      0.2036                17.6924                 0.4575

                     49                     50                     51
                      A                      A                      A
 Frequencies --   1018.9116              1020.3315              1027.0724
 Red. masses --      6.0168                 4.5768                 2.7020
 Frc consts  --      3.6804                 2.8073                 1.6793
 IR Inten    --     66.0146                 0.8990                 3.5848

                     52                     53                     54
                      A                      A                      A
 Frequencies --   1058.2286              1061.4468              1089.3229
 Red. masses --      2.3546                 2.1328                 1.6303
 Frc consts  --      1.5536                 1.4158                 1.1398
 IR Inten    --     17.7352                18.7301                 4.7665

                     55                     56                     57
                      A                      A                      A
 Frequencies --   1114.2394              1134.9309              1170.4282
 Red. masses --      1.5597                 2.4930                 1.4986
 Frc consts  --      1.1409                 1.8919                 1.2096
 IR Inten    --      1.9849                 6.8213                 8.4174

                     58                     59                     60
                      A                      A                      A
 Frequencies --   1192.6898              1206.9383              1209.5587
 Red. masses --      1.1044                 1.8331                 1.2837
 Frc consts  --      0.9256                 1.5732                 1.1066
 IR Inten    --      0.2411                 9.0254                13.2903

                     61                     62                     63
                      A                      A                      A
 Frequencies --   1217.9377              1218.4097              1231.2522
 Red. masses --      1.3081                 2.0503                 1.3177
 Frc consts  --      1.1432                 1.7933                 1.1769
 IR Inten    --      2.0950                 0.1232                37.9358

                     64                     65                     66
                      A                      A                      A
 Frequencies --   1258.9163              1280.2220              1292.2425
 Red. masses --      1.8007                 1.3915                 1.3168
 Frc consts  --      1.6815                 1.3437                 1.2955
 IR Inten    --    218.7394                 0.9919                 8.9315

                     67                     68                     69
                      A                      A                      A
 Frequencies --   1318.8136              1328.2896              1341.2295
 Red. masses --      2.4773                 1.7211                 1.7326
 Frc consts  --      2.5386                 1.7891                 1.8363
 IR Inten    --      4.0294                13.1459                 9.2566

                     70                     71                     72
                      A                      A                      A
 Frequencies --   1353.9904              1365.3511              1386.3623
 Red. masses --      4.5723                 2.3011                 1.4417
 Frc consts  --      4.9387                 2.5274                 1.6326
 IR Inten    --     20.3238                 2.1231                44.0883

                     73                     74                     75
                      A                      A                      A
 Frequencies --   1407.5568              1434.3680              1481.3280
 Red. masses --      1.4835                 4.3753                 2.9685
 Frc consts  --      1.7317                 5.3037                 3.8379
 IR Inten    --     12.5330               179.0717                 9.1446

                     76                     77                     78
                      A                      A                      A
 Frequencies --   1500.1314              1514.5205              1518.8557
 Red. masses --      2.1872                 1.1487                 1.2431
 Frc consts  --      2.8999                 1.5524                 1.6896
 IR Inten    --     16.0315                18.0721                 9.7147

                     79                     80                     81
                      A                      A                      A
 Frequencies --   1537.4209              1543.6116              1546.9598
 Red. masses --      1.7744                 2.0739                 1.6490
 Frc consts  --      2.4710                 2.9115                 2.3251
 IR Inten    --    206.2220                16.0761                20.7836

                     82                     83                     84
                      A                      A                      A
 Frequencies --   1551.9258              1643.2127              1646.3359
 Red. masses --      1.4116                 3.6023                 1.4835
 Frc consts  --      2.0031                 5.7308                 2.3690
 IR Inten    --     93.4624                51.5027               130.5688

                     85                     86                     87
                      A                      A                      A
 Frequencies --   1658.5619              1664.2918              1678.3685
 Red. masses --      6.0499                 5.4683                 6.8182
 Frc consts  --      9.8053                 8.9240                11.3161
 IR Inten    --      8.7743                 5.7391                 3.4956

                     88                     89                     90
                      A                      A                      A
 Frequencies --   1736.1538              2982.9300              3048.3692
 Red. masses --      3.6482                 1.0707                 1.0690
 Frc consts  --      6.4790                 5.6130                 5.8529
 IR Inten    --    661.8563                59.4151                32.5390

                     91                     92                     93
                      A                      A                      A
 Frequencies --   3053.0842              3053.3146              3102.0746
 Red. masses --      1.0716                 1.0873                 1.0960
 Frc consts  --      5.8850                 5.9722                 6.2141
 IR Inten    --     92.9707                15.7014                24.1608

                     94                     95                     96
                      A                      A                      A
 Frequencies --   3137.5050              3171.7996              3182.9938
 Red. masses --      1.1007                 1.0868                 1.0866
 Frc consts  --      6.3841                 6.4416                 6.4860
 IR Inten    --     39.8656                 7.9289                 0.5451

                     97                     98                     99
                      A                      A                      A
 Frequencies --   3186.4776              3193.1980              3205.9197
 Red. masses --      1.0896                 1.0912                 1.0946
 Frc consts  --      6.5186                 6.5557                 6.6284
 IR Inten    --     10.3926                26.2919                27.8972

                    100                    101                    102
                      A                      A                      A
 Frequencies --   3213.4289              3222.9472              3225.3848
 Red. masses --      1.0952                 1.0931                 1.0916
 Frc consts  --      6.6635                 6.6896                 6.6911
 IR Inten    --     10.6597                 8.3431                 0.5016

                    103                    104                    105
                      A                      A                      A
 Frequencies --   3538.0913              3582.4508              3649.8271
 Red. masses --      1.0478                 1.0757                 1.0978
 Frc consts  --      7.7281                 8.1342                 8.6163
 IR Inten    --     11.1095               136.7300                26.7113

 - Thermochemistry -
 -------------------
 Temperature   298.150 Kelvin.  Pressure   1.00000 Atm.
 Atom     1 has atomic number  6 and mass  12.00000

 Molecular mass:   267.13716 amu.
 Principal axes and moments of inertia in atomic units:
                           1         2         3
     Eigenvalues --  2619.07469********************
           X            0.99995  -0.00975  -0.00053
           Y            0.00975   0.99995   0.00014
           Z            0.00052  -0.00015   1.00000
 This molecule is an asymmetric top.
 Rotational symmetry number  1.
 Warning -- assumption of classical behavior for rotation
           may cause significant error
 Rotational temperatures (Kelvin)      0.03307     0.00835     0.00718
 Rotational constants (GHZ):           0.68908     0.17389     0.14958
 Zero-point vibrational energy     807524.9 (Joules/Mol)
                                  193.00309 (Kcal/Mol)
 Warning -- explicit consideration of  25 degrees of freedom as
           vibrations may cause significant error
 Vibrational temperatures:     21.73    33.49    48.19    76.34   114.63
          (Kelvin)            139.83   165.69   231.84   270.44   315.83
                              355.47   408.87   455.10   496.33   537.83
                              591.70   597.92   604.37   632.16   665.40
                              691.87   771.12   799.65   826.09   862.73
                              914.08   919.99   932.64   968.23   994.10
                             1028.36  1032.51  1079.74  1091.48  1151.24
                             1180.47  1191.12  1209.37  1248.27  1249.30
                             1295.45  1317.61  1336.34  1340.36  1388.24
                             1402.02  1414.35  1435.79  1465.99  1468.03
                             1477.73  1522.55  1527.19  1567.29  1603.14
                             1632.91  1683.99  1716.01  1736.51  1740.29
                             1752.34  1753.02  1771.50  1811.30  1841.95
                             1859.25  1897.48  1911.11  1929.73  1948.09
                             1964.44  1994.67  2025.16  2063.74  2131.30
                             2158.35  2179.06  2185.29  2212.01  2220.91
                             2225.73  2232.88  2364.22  2368.71  2386.30
                             2394.54  2414.80  2497.94  4291.77  4385.92
                             4392.71  4393.04  4463.19  4514.17  4563.51
                             4579.62  4584.63  4594.30  4612.60  4623.41
                             4637.10  4640.61  5090.52  5154.35  5251.29

 Zero-point correction=                           0.307570 (Hartree/Particle)
 Thermal correction to Energy=                    0.324588
 Thermal correction to Enthalpy=                  0.325532
 Thermal correction to Gibbs Free Energy=         0.259962
 Sum of electronic and zero-point Energies=           -859.177629
 Sum of electronic and thermal Energies=              -859.160611
 Sum of electronic and thermal Enthalpies=            -859.159667
 Sum of electronic and thermal Free Energies=         -859.225237

                     E (Thermal)             CV                S
                      KCal/Mol        Cal/Mol-Kelvin    Cal/Mol-Kelvin
 Total                  203.682             67.071            138.003
 Electronic               0.000              0.000              0.000
 Translational            0.889              2.981             42.647
 Rotational               0.889              2.981             34.149
 Vibrational            201.905             61.110             61.207
 Vibration     1          0.593              1.986              7.192
 Vibration     2          0.593              1.985              6.333
 Vibration     3          0.594              1.983              5.611
 Vibration     4          0.596              1.976              4.700
 Vibration     5          0.600              1.963              3.899
 Vibration     6          0.603              1.951              3.510
 Vibration     7          0.608              1.937              3.180
 Vibration     8          0.622              1.890              2.536
 Vibration     9          0.633              1.856              2.248
 Vibration    10          0.647              1.811              1.963
 Vibration    11          0.661              1.768              1.751
 Vibration    12          0.683              1.703              1.508
 Vibration    13          0.703              1.642              1.329
 Vibration    14          0.723              1.586              1.189
 Vibration    15          0.745              1.526              1.064
 Vibration    16          0.775              1.446              0.922
 Vibration    17          0.779              1.436              0.907
 Vibration    18          0.783              1.427              0.892
 Vibration    19          0.799              1.384              0.829
 Vibration    20          0.820              1.333              0.759
 Vibration    21          0.837              1.292              0.708
 Vibration    22          0.891              1.170              0.574
 Vibration    23          0.911              1.127              0.532
 Vibration    24          0.930              1.087              0.496
 Vibration    25          0.958              1.033              0.450

                           ! Non-Optimized Parameters !
 Normal termination of Gaussian 16 at Sun Dec 13 16:56:06 2020.

 ----------------------------------------------------------------------
 # B3LYP/6-311++G(d,p) empiricaldispersion=gd3bj scf=xqc pop=npa geom=c
 heck
 ----------------------------------------------------------------------

 ----------------------------------------
 CID_131156754_JID_10105_Energie_neutraal
 ----------------------------------------
 Structure from the checkpoint file:  "JID_10105.chk"
 Charge =  0 Multiplicity = 1

 SCF Done:  E(RB3LYP) =  -859.719735660     A.U. after   15 cycles
 Normal termination of Gaussian 16 at Sun Dec 13 17:02:45 2020.

 ----------------------------------------------------------------------
 # B3LYP/6-311++G(d,p) empiricaldispersion=gd3bj scf=xqc pop=npa geom=c
 heck
 ----------------------------------------------------------------------

 --------------------------------------
 CID_131156754_JID_10105_Energie_kation
 --------------------------------------
 Structure from the checkpoint file:  "JID_10105.chk"
 Charge =  1 Multiplicity = 2

 SCF Done:  E(UB3LYP) =  -859.458030836     A.U. after   23 cycles
 Normal termination of Gaussian 16 at Sun Dec 13 17:16:25 2020.
 Gaussian 16:  ES64L-G16RevA.03 25-Dec-2016

 ----------------------------------------------------------------------
 # B3LYP/6-311++G(d,p) empiricaldispersion=gd3bj scf=xqc pop=npa geom=c
 heck
 ----------------------------------------------------------------------

 -------------------------------------
 CID_131156754_JID_10105_Energie_anion
 -------------------------------------
 Structure from the checkpoint file:  "JID_10105.chk"
 Charge = -1 Multiplicity = 2

                         Standard orientation:
 ---------------------------------------------------------------------
 Center     Atomic      Atomic             Coordinates (Angstroms)
 Number     Number       Type             X           Y           Z
 ---------------------------------------------------------------------
      1          6           0       -4.705562    0.753105   -0.398920
      2          6           0       -5.503448   -0.446317    0.166381
      3          8           0       -4.606570   -1.585718    0.172263
      4          6           0       -3.333026   -1.096433    0.071428
      5          6           0       -3.284371    0.267177   -0.227702
      6          6           0       -2.066939    0.910196   -0.389199
      7          6           0       -0.881934    0.172995   -0.207882
      8          6           0       -0.951432   -1.195139    0.094289
      9          6           0       -2.178009   -1.851580    0.226647
     10          7           0        0.390562    0.766233   -0.389149
     11          6           0        0.868897    1.923825    0.217613
     12          7           0        2.064534    2.386045    0.090235
     13          6           0        2.961289    1.698769   -0.826774
     14          6           0        3.371630    0.299110   -0.379612
     15          6           0        3.488979   -0.746836   -1.302630
     16          6           0        3.847394   -2.031997   -0.887644
     17          6           0        4.091647   -2.286271    0.461329
     18          6           0        3.975312   -1.248926    1.390821
     19          6           0        3.616044    0.030986    0.974078
     20          7           0       -0.057714    2.647260    0.961903
     21          1           0       -4.921667    1.678561    0.144134
     22          1           0       -4.936025    0.930937   -1.457239
     23          1           0       -6.377120   -0.718367   -0.429140
     24          1           0       -5.820057   -0.261949    1.200362
     25          1           0       -2.010394    1.960886   -0.650594
     26          1           0       -0.026968   -1.749685    0.234850
     27          1           0       -2.230010   -2.909846    0.458252
     28          1           0        1.124066    0.108279   -0.619876
     29          1           0        2.530459    1.626384   -1.839541
     30          1           0        3.863873    2.315946   -0.920208
     31          1           0        3.291604   -0.553227   -2.354963
     32          1           0        3.928743   -2.832538   -1.617967
     33          1           0        4.366045   -3.285249    0.788511
     34          1           0        4.161442   -1.441150    2.444189
     35          1           0        3.502024    0.836018    1.693497
     36          1           0       -0.684926    2.089072    1.530534
     37          1           0        0.410966    3.378927    1.482833
 ---------------------------------------------------------------------

 SCF Done:  E(UB3LYP) =  -859.708275100     A.U. after   33 cycles
 SCF Done:  E(UB3LYP) =  -859.708275100     a.u. after    1 cycles

 The electronic state is 2-A.
 Alpha  occ. eigenvalues --  -19.06284 -14.25306 -14.23298 -14.18435 -10.18282
 Alpha  occ. eigenvalues --  -10.14010 -10.13897 -10.12934 -10.11159 -10.10019
 Alpha  occ. eigenvalues --  -10.09631 -10.09503 -10.09438 -10.09381 -10.09374
 Alpha  occ. eigenvalues --  -10.09215 -10.09181 -10.09032 -10.09026 -10.08917
 Alpha  occ. eigenvalues --   -0.98349  -0.90340  -0.81839  -0.79356  -0.77042
 Alpha  occ. eigenvalues --   -0.75979  -0.70737  -0.68068  -0.66555  -0.65429
 Alpha  occ. eigenvalues --   -0.64766  -0.59824  -0.56043  -0.52726  -0.52478
 Alpha  occ. eigenvalues --   -0.51955  -0.50734  -0.49964  -0.44959  -0.44450
 Alpha  occ. eigenvalues --   -0.43026  -0.41950  -0.41239  -0.39988  -0.38685
 Alpha  occ. eigenvalues --   -0.37854  -0.37157  -0.35891  -0.34930  -0.34363
 Alpha  occ. eigenvalues --   -0.33757  -0.33610  -0.33274  -0.32107  -0.31402
 Alpha  occ. eigenvalues --   -0.30848  -0.29675  -0.29305  -0.27738  -0.27460
 Alpha  occ. eigenvalues --   -0.26892  -0.26213  -0.25284  -0.24168  -0.19320
 Alpha  occ. eigenvalues --   -0.17661  -0.17034  -0.16903  -0.16667  -0.14876
 Alpha  occ. eigenvalues --   -0.11463   0.03798
 Alpha virt. eigenvalues --    0.05060   0.05985   0.06248   0.06368   0.06556
 Alpha virt. eigenvalues --    0.06764   0.07718   0.07878   0.08166   0.08302
 Alpha virt. eigenvalues --    0.08525   0.08917   0.09647   0.10342   0.10501

  Beta  occ. eigenvalues --  -19.06285 -14.25303 -14.23280 -14.18432 -10.18276
  Beta  occ. eigenvalues --  -10.13979 -10.13892 -10.12934 -10.11155 -10.10019
  Beta  occ. eigenvalues --  -10.09598 -10.09504 -10.09425 -10.09372 -10.09365
  Beta  occ. eigenvalues --  -10.09209 -10.09165 -10.09024 -10.09006 -10.08908
  Beta  occ. eigenvalues --   -0.98344  -0.90327  -0.81825  -0.79337  -0.77020
  Beta  occ. eigenvalues --   -0.75964  -0.70705  -0.68046  -0.66528  -0.65407
  Beta  occ. eigenvalues --   -0.64726  -0.59801  -0.56000  -0.52695  -0.52426
  Beta  occ. eigenvalues --   -0.51929  -0.50707  -0.49939  -0.44928  -0.44424
  Beta  occ. eigenvalues --   -0.42985  -0.41915  -0.41213  -0.39956  -0.38664
  Beta  occ. eigenvalues --   -0.37822  -0.37131  -0.35868  -0.34910  -0.34339
  Beta  occ. eigenvalues --   -0.33729  -0.33590  -0.33253  -0.32080  -0.31368
  Beta  occ. eigenvalues --   -0.30826  -0.29648  -0.29275  -0.27703  -0.27434
  Beta  occ. eigenvalues --   -0.26864  -0.26187  -0.25261  -0.24146  -0.19301
  Beta  occ. eigenvalues --   -0.17642  -0.16996  -0.16888  -0.16633  -0.14861
  Beta  occ. eigenvalues --   -0.11447
  Beta virt. eigenvalues --    0.05717   0.06119   0.06305   0.06328   0.06410
  Beta virt. eigenvalues --    0.07004   0.07182   0.08045   0.08153   0.08270
  Beta virt. eigenvalues --    0.08592   0.08992   0.09224   0.09797   0.10578

 Mulliken charges and spin densities:
               1          2
     1  C    1.282843  -1.734164
     2  C    0.614612  -0.813826
     3  O   -0.177234   0.068054
     4  C    0.448416  -1.610581
     5  C   -0.077439   1.425196
     6  C   -0.639892   0.591498
     7  C   -0.453753   0.153511
     8  C   -0.056027   0.033647
     9  C   -0.716157   0.166814
    10  N    0.132599  -0.028337
    11  C   -0.112046  -0.036791
    12  N   -0.099111   0.002242
    13  C    0.538807  -1.226158
    14  C    0.485106   0.158755
    15  C   -1.002772   0.653908
    16  C   -0.063018  -0.271107
    17  C    1.299308  -1.651864
    18  C   -0.324190  -0.002572
    19  C   -0.487442   0.492643
    20  N   -0.375916   0.038162
    21  H   -0.307995   0.482959
    22  H   -0.130207   0.302511
    23  H   -0.222398   0.399472
    24  H   -0.234395   0.410621
    25  H    0.039262   0.164305
    26  H   -0.058113   0.159119
    27  H   -0.020772   0.207438
    28  H    0.488438  -0.113166
    29  H    0.113509   0.059316
    30  H    0.186035   0.016496
    31  H   -0.075550   0.234541
    32  H   -0.515598   0.702300
    33  H   -0.381712   0.547967
    34  H   -0.322131   0.505416
    35  H    0.043250   0.150873
    36  H    0.039188   0.214737
    37  H    0.142496   0.146065
 Sum of Mulliken charges =  -1.00000   1.00000

 Dipole moment (field-independent basis, Debye):
    X=              2.0819    Y=              1.7492    Z=             -0.7602  Tot=              2.8235
 Quadrupole moment (field-independent basis, Debye-Ang):
   XX=           -236.3037   YY=           -171.4001   ZZ=           -150.3977
   XY=             15.9827   XZ=             -1.7203   YZ=             -1.6071

 Summary of Natural Population Analysis:

                                       Natural Population
                Natural  -----------------------------------------------
    Atom  No    Charge         Core      Valence    Rydberg      Total
 -----------------------------------------------------------------------
      C    1   -0.20891      0.99962     2.20125    0.00805     3.20891
      C    2   -0.00503      0.99960     1.99371    0.01173     3.00503
      O    3   -0.27633      0.99987     3.26830    0.00817     4.27633
      C    4    0.15498      0.99932     1.83223    0.01347     2.84502
      C    5   -0.03678      0.99948     2.02737    0.00994     3.03678
      C    6   -0.10356      0.99948     2.09496    0.00911     3.10356
      C    7    0.06162      0.99948     1.92787    0.01103     2.93838
      C    8   -0.10539      0.99953     2.09759    0.00826     3.10539
      C    9   -0.11878      0.99952     2.11004    0.00922     3.11878
      N   10   -0.32302      0.99963     2.81463    0.00875     3.82302
      C   11    0.31333      0.99960     1.67030    0.01677     2.68667
      N   12   -0.30991      0.99966     2.80004    0.01021     3.80991
      C   13   -0.10800      0.99957     2.09642    0.01201     3.10800
      C   14   -0.03324      0.99950     2.02317    0.01057     3.03324
      C   15   -0.11079      0.99950     2.10101    0.01028     3.11079
      C   16   -0.09803      0.99956     2.08740    0.01107     3.09803
      C   17   -0.10359      0.99956     2.09380    0.01023     3.10359
      C   18   -0.09701      0.99956     2.08687    0.01058     3.09701
      C   19   -0.10052      0.99950     2.09129    0.00973     3.10052
      N   20   -0.40605      0.99971     2.89767    0.00867     3.90605
      H   21    0.11117      0.00000     0.38696    0.00188     0.38883
      H   22    0.10601      0.00000     0.39251    0.00149     0.39399
      H   23    0.09210      0.00000     0.40624    0.00166     0.40790
      H   24    0.08572      0.00000     0.41248    0.00180     0.41428
      H   25    0.11180      0.00000     0.38657    0.00164     0.38820
      H   26    0.10512      0.00000     0.39369    0.00118     0.39488
      H   27    0.10702      0.00000     0.39195    0.00103     0.39298
      H   28    0.20374      0.00000     0.29274    0.00352     0.29626
      H   29    0.08885      0.00000     0.40926    0.00189     0.41115
      H   30    0.10034      0.00000     0.39840    0.00126     0.39966
      H   31    0.10158      0.00000     0.39734    0.00108     0.39842
      H   32    0.10343      0.00000     0.39518    0.00139     0.39657
      H   33    0.10375      0.00000     0.39469    0.00156     0.39625
      H   34    0.10203      0.00000     0.39699    0.00097     0.39797
      H   35    0.10814      0.00000     0.39020    0.00165     0.39186
      H   36    0.19109      0.00000     0.30706    0.00185     0.30891
      H   37    0.19314      0.00000     0.30464    0.00223     0.30686
 =======================================================================
   * Total *    0.00000     19.99127    50.77280    0.23593    71.00000

 Normal termination of Gaussian 16 at Sun Dec 13 17:36:19 2020.
