 Gaussian 16, Revision A.03,

 -----------------------------------------------------------
 # opt freq B3LYP/6-31G(d) empiricaldispersion=gd3bj scf=xqc
 -----------------------------------------------------------

 ------------------------------
 CID_69586671_JID_5939_neutraal
 ------------------------------
 Symbolic Z-matrix:
 Charge =  0 Multiplicity = 1

 SCF Done:  E(RB3LYP) =  -655.283914818     A.U. after   14 cycles
 SCF Done:  E(RB3LYP) =  -655.287924058     A.U. after   12 cycles
 SCF Done:  E(RB3LYP) =  -655.287626442     A.U. after   13 cycles
 SCF Done:  E(RB3LYP) =  -655.288799459     A.U. after   11 cycles
 SCF Done:  E(RB3LYP) =  -655.289223391     A.U. after   11 cycles
 SCF Done:  E(RB3LYP) =  -655.289364052     A.U. after   11 cycles
 SCF Done:  E(RB3LYP) =  -655.289461195     A.U. after   11 cycles
 SCF Done:  E(RB3LYP) =  -655.289537888     A.U. after   12 cycles
 SCF Done:  E(RB3LYP) =  -655.289436169     A.U. after   12 cycles
 SCF Done:  E(RB3LYP) =  -655.289607435     A.U. after   12 cycles
 SCF Done:  E(RB3LYP) =  -655.289639984     A.U. after    8 cycles
 SCF Done:  E(RB3LYP) =  -655.289640036     A.U. after    7 cycles
 SCF Done:  E(RB3LYP) =  -655.289640033     A.U. after    7 cycles
 SCF Done:  E(RB3LYP) =  -655.289640143     A.U. after    7 cycles
 Optimization completed.
    -- Stationary point found.
 Normal termination of Gaussian 16 at Thu Dec 10 17:47:17 2020.

 --------------------------------------------------------------------
 #N Geom=AllCheck Guess=TCheck SCRF=Check GenChk RB3LYP/6-31G(d) Freq
 --------------------------------------------------------------------

 Structure from the checkpoint file:  "JID_5939.chk"
 ------------------------------
 CID_69586671_JID_5939_neutraal
 ------------------------------
 Charge =  0 Multiplicity = 1

 SCF Done:  E(RB3LYP) =  -655.289640143     A.U. after    1 cycles

  Exact polarizability: 152.001  -5.377 136.083  -0.337  -1.625 121.437
 Approx polarizability: 191.919  -9.749 182.765   9.656  -3.826 200.475

                      1                      2                      3
                      A                      A                      A
 Frequencies --     27.6869                34.3742                60.2696
 Red. masses --      4.5727                 5.0504                 3.1576
 Frc consts  --      0.0021                 0.0035                 0.0068
 IR Inten    --      1.1865                 1.0695                 1.1958

                      4                      5                      6
                      A                      A                      A
 Frequencies --     69.7620               117.7220               119.6219
 Red. masses --      3.6041                 3.0179                 2.6172
 Frc consts  --      0.0103                 0.0246                 0.0221
 IR Inten    --      0.1587                 0.5437                 1.0991

                      7                      8                      9
                      A                      A                      A
 Frequencies --    138.3818               159.1235               190.8546
 Red. masses --      1.0567                 3.2628                 3.3692
 Frc consts  --      0.0119                 0.0487                 0.0723
 IR Inten    --      0.1465                 1.8990                 0.8152

                     10                     11                     12
                      A                      A                      A
 Frequencies --    222.6104               255.2508               307.7640
 Red. masses --      2.7734                 2.4077                 2.8983
 Frc consts  --      0.0810                 0.0924                 0.1617
 IR Inten    --      1.1316                 1.4190                 0.5519

                     13                     14                     15
                      A                      A                      A
 Frequencies --    337.3385               342.2831               369.0936
 Red. masses --      1.8410                 2.3609                 2.9868
 Frc consts  --      0.1234                 0.1630                 0.2397
 IR Inten    --      1.0203                 0.4188                 1.9343

                     16                     17                     18
                      A                      A                      A
 Frequencies --    423.5242               453.7873               457.1302
 Red. masses --      2.8309                 2.6392                 2.6707
 Frc consts  --      0.2992                 0.3202                 0.3288
 IR Inten    --      0.5967                 0.9664                 3.0089

                     19                     20                     21
                      A                      A                      A
 Frequencies --    481.8377               515.9003               524.4511
 Red. masses --      2.4784                 3.2821                 2.2156
 Frc consts  --      0.3390                 0.5147                 0.3591
 IR Inten    --      2.7143                11.8507                 1.4914

                     22                     23                     24
                      A                      A                      A
 Frequencies --    545.4426               571.4465               594.5763
 Red. masses --      1.8674                 1.8893                 3.0777
 Frc consts  --      0.3273                 0.3635                 0.6410
 IR Inten    --     20.0218                 0.1380                 9.5101

                     25                     26                     27
                      A                      A                      A
 Frequencies --    653.2982               706.7548               774.4094
 Red. masses --      1.5160                 2.3829                 2.1784
 Frc consts  --      0.3812                 0.7013                 0.7697
 IR Inten    --     88.4163                 7.2689                 4.7826

                     28                     29                     30
                      A                      A                      A
 Frequencies --    795.4725               825.2165               839.9141
 Red. masses --      1.4228                 1.6406                 1.7278
 Frc consts  --      0.5305                 0.6583                 0.7182
 IR Inten    --      5.5770                 3.3540                17.6849

                     31                     32                     33
                      A                      A                      A
 Frequencies --    847.9162               876.4937               886.5834
 Red. masses --      1.5709                 2.3424                 1.7875
 Frc consts  --      0.6654                 1.0603                 0.8278
 IR Inten    --      4.0535                 0.7292                 1.6875

                     34                     35                     36
                      A                      A                      A
 Frequencies --    914.6509               926.4266               954.7611
 Red. masses --      2.1563                 3.0165                 2.0759
 Frc consts  --      1.0628                 1.5254                 1.1149
 IR Inten    --     11.3233                 7.9718                 6.3265

                     37                     38                     39
                      A                      A                      A
 Frequencies --    973.6676               997.2636              1007.9397
 Red. masses --      2.1263                 1.8053                 1.7183
 Frc consts  --      1.1877                 1.0578                 1.0286
 IR Inten    --      1.4937                26.4822                 9.0758

                     40                     41                     42
                      A                      A                      A
 Frequencies --   1044.7193              1050.1938              1061.7606
 Red. masses --      1.7121                 1.4120                 1.9584
 Frc consts  --      1.1010                 0.9175                 1.3008
 IR Inten    --      5.2464                14.5535                 1.8506

                     43                     44                     45
                      A                      A                      A
 Frequencies --   1064.8110              1090.7384              1097.8362
 Red. masses --      1.7935                 1.8337                 1.6306
 Frc consts  --      1.1981                 1.2853                 1.1579
 IR Inten    --      6.9886                 7.4450                 2.6221

                     46                     47                     48
                      A                      A                      A
 Frequencies --   1102.7077              1119.5853              1132.2193
 Red. masses --      1.6241                 1.9746                 2.5296
 Frc consts  --      1.1635                 1.4583                 1.9106
 IR Inten    --      7.8278                 6.5639                17.3854

                     49                     50                     51
                      A                      A                      A
 Frequencies --   1143.3520              1163.3440              1174.7667
 Red. masses --      2.3827                 1.3312                 1.7830
 Frc consts  --      1.8352                 1.0615                 1.4498
 IR Inten    --     12.6351                 4.1760                 7.1169

                     52                     53                     54
                      A                      A                      A
 Frequencies --   1191.5983              1215.5558              1229.4685
 Red. masses --      1.6060                 1.4076                 1.9001
 Frc consts  --      1.3436                 1.2254                 1.6923
 IR Inten    --      4.9329                 3.1399                 2.5268

                     55                     56                     57
                      A                      A                      A
 Frequencies --   1251.0293              1271.5930              1286.5957
 Red. masses --      1.3343                 1.5759                 1.9169
 Frc consts  --      1.2304                 1.5013                 1.8696
 IR Inten    --      1.9628                 3.2618                55.7506

                     58                     59                     60
                      A                      A                      A
 Frequencies --   1295.1096              1314.5235              1331.8006
 Red. masses --      1.6020                 1.2420                 1.3173
 Frc consts  --      1.5831                 1.2645                 1.3766
 IR Inten    --     35.0931                 4.0133                13.3646

                     61                     62                     63
                      A                      A                      A
 Frequencies --   1347.7769              1357.3417              1387.7253
 Red. masses --      1.2018                 1.6920                 1.3614
 Frc consts  --      1.2862                 1.8367                 1.5447
 IR Inten    --      4.8871               119.7740                 4.9681

                     64                     65                     66
                      A                      A                      A
 Frequencies --   1396.0677              1405.8045              1412.8385
 Red. masses --      1.3366                 1.4163                 1.5040
 Frc consts  --      1.5349                 1.6491                 1.7688
 IR Inten    --     21.7778                 0.9784                 0.3848

                     67                     68                     69
                      A                      A                      A
 Frequencies --   1418.5442              1422.3639              1426.7482
 Red. masses --      1.3015                 1.3661                 1.4855
 Frc consts  --      1.5431                 1.6283                 1.7816
 IR Inten    --     19.9533                24.1102                 4.9227

                     70                     71                     72
                      A                      A                      A
 Frequencies --   1436.3439              1446.0787              1492.4471
 Red. masses --      1.5371                 1.3517                 1.0947
 Frc consts  --      1.8684                 1.6654                 1.4367
 IR Inten    --     48.0839                10.8263                 6.2154

                     73                     74                     75
                      A                      A                      A
 Frequencies --   1497.7859              1499.9334              1501.3493
 Red. masses --      1.1530                 1.4864                 1.1051
 Frc consts  --      1.5240                 1.9703                 1.4676
 IR Inten    --     39.4105                54.5857                14.4169

                     76                     77                     78
                      A                      A                      A
 Frequencies --   1507.4557              1514.8869              1518.6292
 Red. masses --      1.0880                 1.0851                 1.0588
 Frc consts  --      1.4567                 1.4672                 1.4387
 IR Inten    --      1.4853                 5.7798                11.7729

                     79                     80                     81
                      A                      A                      A
 Frequencies --   1523.3115              1530.9888              1532.2398
 Red. masses --      1.1048                 1.1520                 1.2100
 Frc consts  --      1.5105                 1.5910                 1.6738
 IR Inten    --     10.4941                 6.8259                 6.0589

                     82                     83                     84
                      A                      A                      A
 Frequencies --   1540.3462              1794.9014              2904.2454
 Red. masses --      1.1662                 7.8714                 1.0732
 Frc consts  --      1.6302                14.9412                 5.3336
 IR Inten    --      1.6422               373.4871                53.1209

                     85                     86                     87
                      A                      A                      A
 Frequencies --   2930.2242              3029.1727              3034.1077
 Red. masses --      1.0798                 1.0673                 1.0607
 Frc consts  --      5.4624                 5.7702                 5.7533
 IR Inten    --     44.9784                20.9987                13.9646

                     88                     89                     90
                      A                      A                      A
 Frequencies --   3045.2000              3045.9904              3059.9279
 Red. masses --      1.0608                 1.0613                 1.0395
 Frc consts  --      5.7958                 5.8016                 5.7344
 IR Inten    --     26.0536                31.6315                 6.0743

                     91                     92                     93
                      A                      A                      A
 Frequencies --   3078.1636              3080.9055              3086.3888
 Red. masses --      1.0976                 1.0993                 1.0992
 Frc consts  --      6.1274                 6.1478                 6.1692
 IR Inten    --     18.5089                41.0410                55.6583

                     94                     95                     96
                      A                      A                      A
 Frequencies --   3090.8435              3091.6234              3114.3281
 Red. masses --      1.0770                 1.0989                 1.0869
 Frc consts  --      6.0622                 6.1885                 6.2110
 IR Inten    --     12.6105                80.8186                26.3123

                     97                     98                     99
                      A                      A                      A
 Frequencies --   3119.9342              3138.5639              3144.8975
 Red. masses --      1.1005                 1.0533                 1.0899
 Frc consts  --      6.3114                 6.1133                 6.3514
 IR Inten    --     13.5245                13.5403                29.7981

                    100                    101                    102
                      A                      A                      A
 Frequencies --   3154.4300              3162.7794              3179.4157
 Red. masses --      1.0928                 1.0603                 1.1003
 Frc consts  --      6.4064                 6.2490                 6.5532
 IR Inten    --     26.7547                21.8682                 8.4507

                    103                    104                    105
                      A                      A                      A
 Frequencies --   3216.9616              3245.3542              3601.9718
 Red. masses --      1.1181                 1.1141                 1.0755
 Frc consts  --      6.8172                 6.9134                 8.2212
 IR Inten    --      6.9643                14.3745                17.5460

 - Thermochemistry -
 -------------------
 Temperature   298.150 Kelvin.  Pressure   1.00000 Atm.
 Atom     1 has atomic number  6 and mass  12.00000

 Molecular mass:   210.17321 amu.
 Principal axes and moments of inertia in atomic units:
                           1         2         3
     Eigenvalues --  2189.582764743.047935852.38871
           X            0.99971  -0.00118  -0.02396
           Y            0.00131   0.99998   0.00565
           Z            0.02396  -0.00568   0.99970
 This molecule is an asymmetric top.
 Rotational symmetry number  1.
 Warning -- assumption of classical behavior for rotation
           may cause significant error
 Rotational temperatures (Kelvin)      0.03956     0.01826     0.01480
 Rotational constants (GHZ):           0.82424     0.38050     0.30838
 Zero-point vibrational energy     881657.6 (Joules/Mol)
                                  210.72124 (Kcal/Mol)
 Warning -- explicit consideration of  24 degrees of freedom as
           vibrations may cause significant error
 Vibrational temperatures:     39.84    49.46    86.71   100.37   169.38
          (Kelvin)            172.11   199.10   228.94   274.60   320.29
                              367.25   442.80   485.35   492.47   531.04
                              609.36   652.90   657.71   693.26   742.27
                              754.57   784.77   822.18   855.46   939.95
                             1016.86  1114.20  1144.51  1187.30  1208.45
                             1219.96  1261.08  1275.60  1315.98  1332.92
                             1373.69  1400.89  1434.84  1450.20  1503.12
                             1510.99  1527.64  1532.03  1569.33  1579.54
                             1586.55  1610.83  1629.01  1645.03  1673.79
                             1690.23  1714.44  1748.91  1768.93  1799.95
                             1829.54  1851.12  1863.37  1891.31  1916.16
                             1939.15  1952.91  1996.63  2008.63  2022.64
                             2032.76  2040.97  2046.46  2052.77  2066.58
                             2080.58  2147.30  2154.98  2158.07  2160.11
                             2168.89  2179.58  2184.97  2191.71  2202.75
                             2204.55  2216.21  2582.46  4178.56  4215.94
                             4358.30  4365.40  4381.36  4382.50  4402.55
                             4428.79  4432.74  4440.63  4447.03  4448.16
                             4480.82  4488.89  4515.69  4524.81  4538.52
                             4550.53  4574.47  4628.49  4669.34  5182.43

 Zero-point correction=                           0.335806 (Hartree/Particle)
 Thermal correction to Energy=                    0.351295
 Thermal correction to Enthalpy=                  0.352239
 Thermal correction to Gibbs Free Energy=         0.292010
 Sum of electronic and zero-point Energies=           -654.953834
 Sum of electronic and thermal Energies=              -654.938345
 Sum of electronic and thermal Enthalpies=            -654.937401
 Sum of electronic and thermal Free Energies=         -654.997630

                     E (Thermal)             CV                S
                      KCal/Mol        Cal/Mol-Kelvin    Cal/Mol-Kelvin
 Total                  220.441             59.706            126.763
 Electronic               0.000              0.000              0.000
 Translational            0.889              2.981             41.932
 Rotational               0.889              2.981             32.475
 Vibrational            218.663             53.744             52.356
 Vibration     1          0.593              1.984              5.989
 Vibration     2          0.594              1.983              5.559
 Vibration     3          0.597              1.973              4.448
 Vibration     4          0.598              1.969              4.160
 Vibration     5          0.608              1.935              3.137
 Vibration     6          0.609              1.933              3.106
 Vibration     7          0.614              1.915              2.826
 Vibration     8          0.621              1.892              2.560
 Vibration     9          0.634              1.852              2.220
 Vibration    10          0.648              1.807              1.938
 Vibration    11          0.666              1.754              1.694
 Vibration    12          0.698              1.659              1.374
 Vibration    13          0.718              1.601              1.225
 Vibration    14          0.721              1.591              1.201
 Vibration    15          0.741              1.536              1.084
 Vibration    16          0.786              1.419              0.880
 Vibration    17          0.812              1.353              0.784
 Vibration    18          0.815              1.345              0.775
 Vibration    19          0.838              1.290              0.705
 Vibration    20          0.871              1.215              0.620
 Vibration    21          0.879              1.196              0.600
 Vibration    22          0.901              1.150              0.554
 Vibration    23          0.928              1.093              0.501
 Vibration    24          0.952              1.043              0.459

 Optimization completed.
    -- Stationary point found.
 Normal termination of Gaussian 16 at Thu Dec 10 18:00:18 2020.

 ----------------------------------------------------------------------
 # B3LYP/6-311++G(d,p) empiricaldispersion=gd3bj scf=xqc pop=npa geom=c
 heck
 ----------------------------------------------------------------------

 --------------------------------------
 CID_69586671_JID_5939_Energie_neutraal
 --------------------------------------
 Structure from the checkpoint file:  "JID_5939.chk"
 Charge =  0 Multiplicity = 1

 SCF Done:  E(RB3LYP) =  -655.476360278     A.U. after   14 cycles
 Normal termination of Gaussian 16 at Thu Dec 10 18:05:24 2020.

 ----------------------------------------------------------------------
 # B3LYP/6-311++G(d,p) empiricaldispersion=gd3bj scf=xqc pop=npa geom=c
 heck
 ----------------------------------------------------------------------

 ------------------------------------
 CID_69586671_JID_5939_Energie_kation
 ------------------------------------
 Structure from the checkpoint file:  "JID_5939.chk"
 Charge =  1 Multiplicity = 2

 SCF Done:  E(UB3LYP) =  -655.190413921     A.U. after   33 cycles
 SCF Done:  E(UB3LYP) =  -655.190418598     a.u. after    3 cycles
 Normal termination of Gaussian 16 at Thu Dec 10 18:41:46 2020.
 Gaussian 16:  ES64L-G16RevA.03 25-Dec-2016

 ----------------------------------------------------------------------
 # B3LYP/6-311++G(d,p) empiricaldispersion=gd3bj scf=xqc pop=npa geom=c
 heck
 ----------------------------------------------------------------------

 -----------------------------------
 CID_69586671_JID_5939_Energie_anion
 -----------------------------------
 Structure from the checkpoint file:  "JID_5939.chk"
 Charge = -1 Multiplicity = 2

                         Standard orientation:
 ---------------------------------------------------------------------
 Center     Atomic      Atomic             Coordinates (Angstroms)
 Number     Number       Type             X           Y           Z
 ---------------------------------------------------------------------
      1          6           0        4.053648   -0.814932   -0.484687
      2          6           0        3.262925   -0.109780    0.607447
      3          8           0        3.554235   -0.212090    1.792475
      4          7           0        2.220972    0.683600    0.198966
      5          6           0        1.606063    0.741298   -1.117589
      6          6           0        0.562835   -0.362637   -1.384426
      7          6           0       -0.516852   -0.624286   -0.313037
      8          6           0       -0.937792   -2.101429   -0.413349
      9          6           0       -2.053584   -2.467787    0.562527
     10          6           0       -3.229654   -1.515513    0.361621
     11          6           0       -2.764685   -0.067267    0.491719
     12          7           0       -1.699203    0.250145   -0.461559
     13          6           0       -1.347681    1.653411   -0.521169
     14          6           0       -2.123102    2.755828    0.145178
     15          6           0       -0.737786    2.418338    0.646121
     16          1           0        4.852331   -1.382018   -0.006100
     17          1           0        4.493138   -0.095062   -1.184562
     18          1           0        3.424314   -1.499309   -1.064167
     19          1           0        1.694766    1.076705    0.969330
     20          1           0        1.169065    1.734215   -1.225278
     21          1           0        2.393382    0.667089   -1.873917
     22          1           0        0.069691   -0.170497   -2.346121
     23          1           0        1.117582   -1.300591   -1.507746
     24          1           0       -0.062089   -0.476033    0.685732
     25          1           0       -0.052821   -2.724060   -0.235594
     26          1           0       -1.271442   -2.295744   -1.442061
     27          1           0       -2.360196   -3.511219    0.422656
     28          1           0       -1.682969   -2.379080    1.593889
     29          1           0       -3.657946   -1.660840   -0.638381
     30          1           0       -4.024540   -1.705225    1.093082
     31          1           0       -3.605992    0.598386    0.287048
     32          1           0       -2.451554    0.109489    1.541746
     33          1           0       -0.954018    1.928278   -1.497029
     34          1           0       -2.260874    3.672922   -0.420482
     35          1           0       -2.955417    2.518440    0.797542
     36          1           0       -0.683947    1.909688    1.605478
     37          1           0        0.077261    3.113492    0.461144
 ---------------------------------------------------------------------

 SCF Done:  E(UB3LYP) =  -655.463688201     A.U. after   33 cycles
 SCF Done:  E(UB3LYP) =  -655.463688201     a.u. after    1 cycles

 The electronic state is 2-A.
 Alpha  occ. eigenvalues --  -18.99252 -14.23890 -14.21570 -10.17998 -10.11219
 Alpha  occ. eigenvalues --  -10.11124 -10.10861 -10.10071 -10.08265 -10.08057
 Alpha  occ. eigenvalues --  -10.08015 -10.07679 -10.07573 -10.07483 -10.07361
 Alpha  occ. eigenvalues --   -0.94306  -0.84548  -0.82745  -0.75658  -0.69833
 Alpha  occ. eigenvalues --   -0.69397  -0.64951  -0.63680  -0.57597  -0.54979
 Alpha  occ. eigenvalues --   -0.52622  -0.50413  -0.49243  -0.48111  -0.45379
 Alpha  occ. eigenvalues --   -0.42492  -0.40673  -0.39533  -0.38719  -0.37759
 Alpha  occ. eigenvalues --   -0.36370  -0.35990  -0.34779  -0.33976  -0.32917
 Alpha  occ. eigenvalues --   -0.31939  -0.31447  -0.30764  -0.29718  -0.29252
 Alpha  occ. eigenvalues --   -0.28330  -0.27913  -0.27007  -0.25804  -0.25155
 Alpha  occ. eigenvalues --   -0.24574  -0.23129  -0.22104  -0.21932  -0.20467
 Alpha  occ. eigenvalues --   -0.16600  -0.15958  -0.12126   0.04144
 Alpha virt. eigenvalues --    0.05856   0.06208   0.07266   0.07823   0.08149
 Alpha virt. eigenvalues --    0.08821   0.09229   0.09762   0.10118   0.10623
 Alpha virt. eigenvalues --    0.11062   0.11152   0.11980   0.12224   0.12629

  Beta  occ. eigenvalues --  -18.99249 -14.23889 -14.21568 -10.17997 -10.11195
  Beta  occ. eigenvalues --  -10.11111 -10.10861 -10.10060 -10.08241 -10.08021
  Beta  occ. eigenvalues --  -10.08003 -10.07660 -10.07563 -10.07468 -10.07350
  Beta  occ. eigenvalues --   -0.94300  -0.84534  -0.82735  -0.75635  -0.69811
  Beta  occ. eigenvalues --   -0.69372  -0.64909  -0.63642  -0.57566  -0.54943
  Beta  occ. eigenvalues --   -0.52583  -0.50363  -0.49209  -0.48079  -0.45347
  Beta  occ. eigenvalues --   -0.42458  -0.40631  -0.39486  -0.38682  -0.37739
  Beta  occ. eigenvalues --   -0.36344  -0.35964  -0.34743  -0.33949  -0.32892
  Beta  occ. eigenvalues --   -0.31921  -0.31415  -0.30733  -0.29693  -0.29223
  Beta  occ. eigenvalues --   -0.28296  -0.27887  -0.26983  -0.25777  -0.25123
  Beta  occ. eigenvalues --   -0.24553  -0.23106  -0.22079  -0.21900  -0.20444
  Beta  occ. eigenvalues --   -0.16587  -0.15943  -0.12108
  Beta virt. eigenvalues --    0.06178   0.06840   0.07056   0.07558   0.08320
  Beta virt. eigenvalues --    0.08744   0.09250   0.09441   0.10089   0.10356
  Beta virt. eigenvalues --    0.10951   0.11267   0.11589   0.12282   0.12403

 Mulliken charges and spin densities:
               1          2
     1  C    0.736093  -1.225186
     2  C   -0.323440   0.367265
     3  O   -0.337185   0.005324
     4  N   -0.080111  -0.011671
     5  C   -0.451912  -0.073306
     6  C    0.848117  -0.726311
     7  C   -0.232021  -0.244316
     8  C   -0.149378  -0.274616
     9  C   -0.343772  -0.108733
    10  C    0.514831  -0.921273
    11  C    0.082846  -0.336288
    12  N    0.362377   0.041627
    13  C   -1.013187   0.869323
    14  C    0.909745  -1.364560
    15  C    0.372420  -0.691850
    16  H    0.131951   0.041315
    17  H   -0.215650   0.389630
    18  H   -0.325166   0.478651
    19  H    0.205803   0.145755
    20  H   -0.318695   0.522424
    21  H   -0.623414   0.809629
    22  H   -0.076320   0.245723
    23  H    0.129068   0.039252
    24  H    0.313311  -0.126467
    25  H    0.083718   0.048879
    26  H   -0.026288   0.185051
    27  H   -0.182021   0.361868
    28  H    0.106410   0.007816
    29  H    0.123250   0.008780
    30  H   -0.266455   0.434743
    31  H   -0.107742   0.277713
    32  H    0.070156   0.041502
    33  H   -0.449764   0.691732
    34  H   -0.467637   0.638618
    35  H   -0.083552   0.226234
    36  H    0.015323   0.134232
    37  H    0.068292   0.091492
 Sum of Mulliken charges =  -1.00000   1.00000

 Dipole moment (field-independent basis, Debye):
    X=             -1.8812    Y=             -2.3182    Z=              2.1755  Tot=              3.6940
 Quadrupole moment (field-independent basis, Debye-Ang):
   XX=           -170.5805   YY=           -148.3211   ZZ=           -140.8609
   XY=              1.3740   XZ=              0.6634   YZ=              7.3646

 Summary of Natural Population Analysis:

                                       Natural Population
                Natural  -----------------------------------------------
    Atom  No    Charge         Core      Valence    Rydberg      Total
 -----------------------------------------------------------------------
      C    1   -0.33480      0.99962     2.33045    0.00473     3.33480
      C    2    0.34258      0.99969     1.63538    0.02236     2.65742
      O    3   -0.32663      0.99988     3.32093    0.00582     4.32663
      N    4   -0.32183      0.99967     2.81245    0.00971     3.82183
      C    5   -0.09037      0.99960     2.07843    0.01233     3.09037
      C    6   -0.19895      0.99960     2.18999    0.00937     3.19895
      C    7   -0.00224      0.99956     1.99110    0.01157     3.00224
      C    8   -0.18944      0.99961     2.18089    0.00894     3.18944
      C    9   -0.18987      0.99963     2.18239    0.00786     3.18987
      C   10   -0.19146      0.99962     2.18344    0.00840     3.19146
      C   11   -0.08507      0.99961     2.07331    0.01216     3.08507
      N   12   -0.28004      0.99968     2.76833    0.01203     3.78004
      C   13   -0.01360      0.99956     1.99869    0.01534     3.01360
      C   14   -0.19711      0.99961     2.18811    0.00940     3.19711
      C   15   -0.21933      0.99962     2.21212    0.00760     3.21933
      H   16    0.11130      0.00000     0.38791    0.00079     0.38870
      H   17    0.11137      0.00000     0.38742    0.00121     0.38863
      H   18    0.10913      0.00000     0.38963    0.00125     0.39087
      H   19    0.19455      0.00000     0.30283    0.00261     0.30545
      H   20    0.10225      0.00000     0.39599    0.00176     0.39775
      H   21    0.10258      0.00000     0.39520    0.00221     0.39742
      H   22    0.10711      0.00000     0.39134    0.00155     0.39289
      H   23    0.09880      0.00000     0.39964    0.00156     0.40120
      H   24    0.08086      0.00000     0.41681    0.00233     0.41914
      H   25    0.10020      0.00000     0.39894    0.00086     0.39980
      H   26    0.09733      0.00000     0.40114    0.00152     0.40267
      H   27    0.09913      0.00000     0.39994    0.00093     0.40087
      H   28    0.09320      0.00000     0.40563    0.00118     0.40680
      H   29    0.09684      0.00000     0.40176    0.00140     0.40316
      H   30    0.09886      0.00000     0.40012    0.00102     0.40114
      H   31    0.10016      0.00000     0.39821    0.00164     0.39984
      H   32    0.07686      0.00000     0.42162    0.00152     0.42314
      H   33    0.10165      0.00000     0.39608    0.00227     0.39835
      H   34    0.10701      0.00000     0.39155    0.00144     0.39299
      H   35    0.10373      0.00000     0.39519    0.00108     0.39627
      H   36    0.10121      0.00000     0.39763    0.00116     0.39879
      H   37    0.10404      0.00000     0.39470    0.00126     0.39596
 =======================================================================
   * Total *    0.00000     14.99456    42.81527    0.19017    58.00000

 Normal termination of Gaussian 16 at Thu Dec 10 18:57:43 2020.
