 Gaussian 16, Revision A.03,

 -----------------------------------------------------------
 # opt freq B3LYP/6-31G(d) empiricaldispersion=gd3bj scf=xqc
 -----------------------------------------------------------

 -----------------------------
 CID_5280527_JID_8985_neutraal
 -----------------------------
 Symbolic Z-matrix:
 Charge =  0 Multiplicity = 1

 SCF Done:  E(RB3LYP) =  -896.008322149     A.U. after   15 cycles
 SCF Done:  E(RB3LYP) =  -896.014034558     A.U. after   13 cycles
 SCF Done:  E(RB3LYP) =  -896.014818465     A.U. after   13 cycles
 SCF Done:  E(RB3LYP) =  -896.016833364     A.U. after   12 cycles
 SCF Done:  E(RB3LYP) =  -896.017261759     A.U. after   12 cycles
 SCF Done:  E(RB3LYP) =  -896.018541989     A.U. after   12 cycles
 SCF Done:  E(RB3LYP) =  -896.018748901     A.U. after   12 cycles
 SCF Done:  E(RB3LYP) =  -896.019059662     A.U. after   12 cycles
 SCF Done:  E(RB3LYP) =  -896.019231560     A.U. after   12 cycles
 SCF Done:  E(RB3LYP) =  -896.019532094     A.U. after   13 cycles
 SCF Done:  E(RB3LYP) =  -896.020650839     A.U. after   12 cycles
 SCF Done:  E(RB3LYP) =  -896.020653687     A.U. after   10 cycles
 SCF Done:  E(RB3LYP) =  -896.020654510     A.U. after    8 cycles
 SCF Done:  E(RB3LYP) =  -896.020654823     A.U. after    8 cycles
 SCF Done:  E(RB3LYP) =  -896.020654935     A.U. after    7 cycles
 SCF Done:  E(RB3LYP) =  -896.020654981     A.U. after    7 cycles
 Optimization completed.
    -- Stationary point found.
 Normal termination of Gaussian 16 at Fri Dec 11 23:25:10 2020.

 --------------------------------------------------------------------
 #N Geom=AllCheck Guess=TCheck SCRF=Check GenChk RB3LYP/6-31G(d) Freq
 --------------------------------------------------------------------

 Structure from the checkpoint file:  "JID_8985.chk"
 -----------------------------
 CID_5280527_JID_8985_neutraal
 -----------------------------
 Charge =  0 Multiplicity = 1

 SCF Done:  E(RB3LYP) =  -896.020654981     A.U. after    1 cycles

  Exact polarizability: 240.087 -17.755 169.457   4.226   3.508  71.699
 Approx polarizability: 367.182 -45.387 268.994  10.925   4.019 110.159

                      1                      2                      3
                      A                      A                      A
 Frequencies --     22.6611                35.6914                39.5698
 Red. masses --      5.1886                 7.7155                 9.2671
 Frc consts  --      0.0016                 0.0058                 0.0085
 IR Inten    --      0.0853                 0.3581                 0.7543

                      4                      5                      6
                      A                      A                      A
 Frequencies --     61.1865                76.1629                78.3844
 Red. masses --      5.4404                 4.4445                 5.2233
 Frc consts  --      0.0120                 0.0152                 0.0189
 IR Inten    --      0.5562                 5.6280                 0.5808

                      7                      8                      9
                      A                      A                      A
 Frequencies --    101.6367               137.6820               165.6014
 Red. masses --      6.1225                 4.8374                 3.5294
 Frc consts  --      0.0373                 0.0540                 0.0570
 IR Inten    --      3.1487                 6.2039                 0.6360

                     10                     11                     12
                      A                      A                      A
 Frequencies --    185.2488               207.3286               229.9770
 Red. masses --      3.1921                 3.8879                 5.7296
 Frc consts  --      0.0645                 0.0985                 0.1785
 IR Inten    --      1.1580                 1.2415                 2.4781

                     13                     14                     15
                      A                      A                      A
 Frequencies --    233.1197               279.0760               304.6570
 Red. masses --      1.6524                 2.4193                 3.8736
 Frc consts  --      0.0529                 0.1110                 0.2118
 IR Inten    --      2.5297                 3.1637                 0.0654

                     16                     17                     18
                      A                      A                      A
 Frequencies --    314.9462               366.3009               381.8112
 Red. masses --      5.6109                 4.4754                 4.3679
 Frc consts  --      0.3279                 0.3538                 0.3752
 IR Inten    --      9.3224                 1.9889                 0.5694

                     19                     20                     21
                      A                      A                      A
 Frequencies --    432.4563               459.9212               489.0030
 Red. masses --      2.3724                 2.5139                 1.2149
 Frc consts  --      0.2614                 0.3133                 0.1712
 IR Inten    --      7.6178                17.9644                94.1408

                     22                     23                     24
                      A                      A                      A
 Frequencies --    494.5279               516.4433               541.8433
 Red. masses --      5.1429                 4.1288                 4.6801
 Frc consts  --      0.7410                 0.6488                 0.8096
 IR Inten    --      6.1981                11.1530                 4.8531

                     25                     26                     27
                      A                      A                      A
 Frequencies --    569.1802               579.8264               596.6163
 Red. masses --      2.6351                 3.0059                 3.9141
 Frc consts  --      0.5030                 0.5954                 0.8209
 IR Inten    --     77.9946                20.5760                31.6618

                     28                     29                     30
                      A                      A                      A
 Frequencies --    612.8832               631.3193               670.7645
 Red. masses --      2.4221                 1.9594                 2.0349
 Frc consts  --      0.5360                 0.4601                 0.5394
 IR Inten    --     41.1624                16.0692                98.5774

                     31                     32                     33
                      A                      A                      A
 Frequencies --    701.2995               728.2638               755.9827
 Red. masses --      4.4899                 4.5057                 3.7782
 Frc consts  --      1.3010                 1.4080                 1.2722
 IR Inten    --     14.6330                21.1104                26.6228

                     34                     35                     36
                      A                      A                      A
 Frequencies --    789.6549               826.7965               831.6903
 Red. masses --      5.0962                 4.6445                 1.5127
 Frc consts  --      1.8723                 1.8706                 0.6165
 IR Inten    --      6.1715                16.5673                31.9274

                     37                     38                     39
                      A                      A                      A
 Frequencies --    858.5028               881.7968               895.2992
 Red. masses --      2.0627                 2.2348                 2.5995
 Frc consts  --      0.8957                 1.0238                 1.2277
 IR Inten    --     23.4837                22.2357                15.2501

                     40                     41                     42
                      A                      A                      A
 Frequencies --    906.0312               939.1928               965.9304
 Red. masses --      2.7692                 1.2830                 3.6549
 Frc consts  --      1.3394                 0.6668                 2.0092
 IR Inten    --     16.0488                 1.2923                 8.4539

                     43                     44                     45
                      A                      A                      A
 Frequencies --   1000.6767              1045.5632              1076.0766
 Red. masses --      2.0765                 1.1618                 4.2316
 Frc consts  --      1.2251                 0.7483                 2.8869
 IR Inten    --      9.3571                41.7586                46.8553

                     46                     47                     48
                      A                      A                      A
 Frequencies --   1142.6777              1157.6513              1187.0202
 Red. masses --      2.8024                 1.5520                 1.2666
 Frc consts  --      2.1559                 1.2254                 1.0515
 IR Inten    --    116.9728                46.6462                 0.6519

                     49                     50                     51
                      A                      A                      A
 Frequencies --   1197.2514              1206.0911              1233.4864
 Red. masses --      2.3706                 1.6680                 1.8217
 Frc consts  --      2.0021                 1.4296                 1.6331
 IR Inten    --    407.2648                31.2468                39.4220

                     52                     53                     54
                      A                      A                      A
 Frequencies --   1250.5725              1271.2020              1281.5679
 Red. masses --      1.3959                 1.6640                 1.6177
 Frc consts  --      1.2862                 1.5842                 1.5654
 IR Inten    --    164.1806                46.8541                55.5286

                     55                     56                     57
                      A                      A                      A
 Frequencies --   1310.7702              1331.7508              1340.9259
 Red. masses --      1.8911                 2.6726                 1.8735
 Frc consts  --      1.9143                 2.7927                 1.9848
 IR Inten    --     58.8199               199.6483               142.9308

                     58                     59                     60
                      A                      A                      A
 Frequencies --   1354.8627              1383.6884              1392.7822
 Red. masses --      1.8252                 2.4404                 1.4737
 Frc consts  --      1.9740                 2.7528                 1.6843
 IR Inten    --    121.8687                37.6577                61.7497

                     61                     62                     63
                      A                      A                      A
 Frequencies --   1415.5518              1440.1690              1481.1426
 Red. masses --      1.8746                 2.4097                 2.9968
 Frc consts  --      2.2131                 2.9446                 3.8734
 IR Inten    --     56.6598                44.5009                28.3096

                     64                     65                     66
                      A                      A                      A
 Frequencies --   1486.9537              1505.7218              1508.2659
 Red. masses --      1.6047                 1.0886                 1.3016
 Frc consts  --      2.0904                 1.4542                 1.7446
 IR Inten    --     70.4455                15.7830                15.2787

                     67                     68                     69
                      A                      A                      A
 Frequencies --   1518.5920              1535.4847              1572.2582
 Red. masses --      1.0468                 1.0689                 3.2115
 Frc consts  --      1.4223                 1.4848                 4.6774
 IR Inten    --      6.5821                53.0751               236.5960

                     70                     71                     72
                      A                      A                      A
 Frequencies --   1652.1211              1666.9850              1702.0634
 Red. masses --      5.4324                 6.0372                 5.4665
 Frc consts  --      8.7362                 9.8843                 9.3307
 IR Inten    --    133.2513                40.5195                37.5867

                     73                     74                     75
                      A                      A                      A
 Frequencies --   1766.4417              1839.1781              3037.5843
 Red. masses --      7.4954                 9.5313                 1.0334
 Frc consts  --     13.7799                18.9955                 5.6182
 IR Inten    --    442.4662               263.5318                40.9147

                     76                     77                     78
                      A                      A                      A
 Frequencies --   3063.3536              3100.1671              3165.5485
 Red. masses --      1.0704                 1.1072                 1.1016
 Frc consts  --      5.9183                 6.2696                 6.5037
 IR Inten    --     30.9843                33.7291                26.2869

                     79                     80                     81
                      A                      A                      A
 Frequencies --   3182.0446              3200.6170              3208.4602
 Red. masses --      1.0950                 1.0913                 1.0882
 Frc consts  --      6.5327                 6.5864                 6.5999
 IR Inten    --      1.2691                 5.0336                 5.1555

                     82                     83                     84
                      A                      A                      A
 Frequencies --   3213.2787              3219.4210              3223.1304
 Red. masses --      1.0864                 1.0890                 1.0943
 Frc consts  --      6.6090                 6.6499                 6.6982
 IR Inten    --      1.2352                 2.8511                 9.0560

                     85                     86                     87
                      A                      A                      A
 Frequencies --   3595.7530              3680.9406              3693.7703
 Red. masses --      1.0758                 1.0640                 1.0646
 Frc consts  --      8.1953                 8.4939                 8.5582
 IR Inten    --     35.6722                53.2802               121.1697

 - Thermochemistry -
 -------------------
 Temperature   298.150 Kelvin.  Pressure   1.00000 Atm.
 Atom     1 has atomic number  6 and mass  12.00000

 Molecular mass:   251.07937 amu.
 Principal axes and moments of inertia in atomic units:
                           1         2         3
     Eigenvalues --  2777.122418531.97514**********
           X            0.99999  -0.00422  -0.00323
           Y            0.00425   0.99996   0.00749
           Z            0.00320  -0.00750   0.99997
 This molecule is an asymmetric top.
 Rotational symmetry number  1.
 Warning -- assumption of classical behavior for rotation
           may cause significant error
 Rotational temperatures (Kelvin)      0.03119     0.01015     0.00780
 Rotational constants (GHZ):           0.64986     0.21153     0.16259
 Zero-point vibrational energy     638422.4 (Joules/Mol)
                                  152.58661 (Kcal/Mol)
 Warning -- explicit consideration of  28 degrees of freedom as
           vibrations may cause significant error
 Vibrational temperatures:     32.60    51.35    56.93    88.03   109.58
          (Kelvin)            112.78   146.23   198.09   238.26   266.53
                              298.30   330.89   335.41   401.53   438.33
                              453.14   527.03   549.34   622.21   661.72
                              703.57   711.52   743.05   779.59   818.92
                              834.24   858.40   881.80   908.33   965.08
                             1009.01  1047.81  1087.69  1136.14  1189.58
                             1196.62  1235.19  1268.71  1288.14  1303.58
                             1351.29  1389.76  1439.75  1504.33  1548.23
                             1644.06  1665.60  1707.86  1722.58  1735.30
                             1774.71  1799.29  1828.98  1843.89  1885.91
                             1916.09  1929.29  1949.35  1990.82  2003.90
                             2036.66  2072.08  2131.03  2139.39  2166.40
                             2170.06  2184.92  2209.22  2262.13  2377.03
                             2398.42  2448.89  2541.52  2646.17  4370.41
                             4407.48  4460.45  4554.52  4578.25  4604.97
                             4616.26  4623.19  4632.03  4637.37  5173.49
                             5296.05  5314.51

 Zero-point correction=                           0.243162 (Hartree/Particle)
 Thermal correction to Energy=                    0.260617
 Thermal correction to Enthalpy=                  0.261561
 Thermal correction to Gibbs Free Energy=         0.195538
 Sum of electronic and zero-point Energies=           -895.777493
 Sum of electronic and thermal Energies=              -895.760038
 Sum of electronic and thermal Enthalpies=            -895.759094
 Sum of electronic and thermal Free Energies=         -895.825117

                     E (Thermal)             CV                S
                      KCal/Mol        Cal/Mol-Kelvin    Cal/Mol-Kelvin
 Total                  163.540             64.174            138.958
 Electronic               0.000              0.000              0.000
 Translational            0.889              2.981             42.462
 Rotational               0.889              2.981             33.930
 Vibrational            161.762             58.213             62.566
 Vibration     1          0.593              1.985              6.386
 Vibration     2          0.594              1.982              5.485
 Vibration     3          0.594              1.981              5.281
 Vibration     4          0.597              1.973              4.419
 Vibration     5          0.599              1.965              3.987
 Vibration     6          0.600              1.964              3.931
 Vibration     7          0.604              1.948              3.423
 Vibration     8          0.614              1.916              2.836
 Vibration     9          0.624              1.885              2.485
 Vibration    10          0.631              1.860              2.275
 Vibration    11          0.641              1.829              2.067
 Vibration    12          0.652              1.795              1.879
 Vibration    13          0.654              1.790              1.855
 Vibration    14          0.679              1.712              1.539
 Vibration    15          0.696              1.665              1.391
 Vibration    16          0.702              1.645              1.336
 Vibration    17          0.739              1.542              1.095
 Vibration    18          0.751              1.509              1.032
 Vibration    19          0.793              1.400              0.851
 Vibration    20          0.818              1.339              0.766
 Vibration    21          0.845              1.274              0.686
 Vibration    22          0.850              1.262              0.672
 Vibration    23          0.871              1.214              0.618
 Vibration    24          0.897              1.158              0.561
 Vibration    25          0.925              1.098              0.506
 Vibration    26          0.936              1.075              0.486
 Vibration    27          0.954              1.039              0.456
 Vibration    28          0.972              1.005              0.428

 Optimization completed.
    -- Stationary point found.
 Normal termination of Gaussian 16 at Fri Dec 11 23:35:13 2020.

 ----------------------------------------------------------------------
 # B3LYP/6-311++G(d,p) empiricaldispersion=gd3bj scf=xqc pop=npa geom=c
 heck
 ----------------------------------------------------------------------

 -------------------------------------
 CID_5280527_JID_8985_Energie_neutraal
 -------------------------------------
 Structure from the checkpoint file:  "JID_8985.chk"
 Charge =  0 Multiplicity = 1

 SCF Done:  E(RB3LYP) =  -896.297104603     A.U. after   17 cycles
 Normal termination of Gaussian 16 at Fri Dec 11 23:40:38 2020.

 ----------------------------------------------------------------------
 # B3LYP/6-311++G(d,p) empiricaldispersion=gd3bj scf=xqc pop=npa geom=c
 heck
 ----------------------------------------------------------------------

 -----------------------------------
 CID_5280527_JID_8985_Energie_kation
 -----------------------------------
 Structure from the checkpoint file:  "JID_8985.chk"
 Charge =  1 Multiplicity = 2

 SCF Done:  E(UB3LYP) =  -896.018120238     A.U. after   26 cycles
 Normal termination of Gaussian 16 at Fri Dec 11 23:52:14 2020.
 Gaussian 16:  ES64L-G16RevA.03 25-Dec-2016

 ----------------------------------------------------------------------
 # B3LYP/6-311++G(d,p) empiricaldispersion=gd3bj scf=xqc pop=npa geom=c
 heck
 ----------------------------------------------------------------------

 ----------------------------------
 CID_5280527_JID_8985_Energie_anion
 ----------------------------------
 Structure from the checkpoint file:  "JID_8985.chk"
 Charge = -1 Multiplicity = 2

                         Standard orientation:
 ---------------------------------------------------------------------
 Center     Atomic      Atomic             Coordinates (Angstroms)
 Number     Number       Type             X           Y           Z
 ---------------------------------------------------------------------
      1          6           0       -3.002183    2.812482    0.243967
      2          8           0       -3.661617    1.564801    0.084275
      3          6           0       -2.884253    0.433385    0.050874
      4          6           0       -3.624948   -0.756187   -0.102538
      5          6           0       -2.960512   -1.979220   -0.152680
      6          6           0       -1.572773   -2.024600   -0.055839
      7          6           0       -0.823536   -0.848353    0.093669
      8          6           0       -1.502841    0.387659    0.152015
      9          6           0        0.632650   -0.818005    0.182742
     10          6           0        1.493966   -1.829485   -0.039005
     11          6           0        2.958320   -1.752109    0.166743
     12          8           0        3.595076   -2.717190    0.575944
     13          7           0        3.616874   -0.551979   -0.075817
     14          6           0        3.215886    0.518107   -0.974184
     15          6           0        2.963507    1.809283   -0.204262
     16          8           0        1.880691    2.304133    0.026752
     17          8           0        4.122737    2.342000    0.240821
     18          8           0       -4.979108   -0.705924   -0.196365
     19          1           0       -3.786219    3.571036    0.247685
     20          1           0       -2.309457    3.002079   -0.585170
     21          1           0       -2.449855    2.848386    1.191069
     22          1           0       -3.549095   -2.884070   -0.262108
     23          1           0       -1.071615   -2.986544   -0.082414
     24          1           0       -0.920960    1.296846    0.257866
     25          1           0        1.032964    0.151954    0.460606
     26          1           0        1.148799   -2.832389   -0.272493
     27          1           0        4.606660   -0.623169    0.126527
     28          1           0        4.003429    0.699393   -1.715396
     29          1           0        2.300457    0.241812   -1.494324
     30          1           0        3.885321    3.125308    0.772688
     31          1           0       -5.230482    0.232913   -0.134239
 ---------------------------------------------------------------------

 SCF Done:  E(UB3LYP) =  -896.306975799     A.U. after   31 cycles

 The electronic state is 2-A.
 Alpha  occ. eigenvalues --  -19.08192 -19.06447 -19.04145 -19.02469 -18.94318
 Alpha  occ. eigenvalues --  -14.21220 -10.21252 -10.14043 -10.12715 -10.11698
 Alpha  occ. eigenvalues --  -10.11578 -10.10443 -10.05319 -10.04930 -10.04655
 Alpha  occ. eigenvalues --  -10.04198 -10.02406 -10.01775  -1.02126  -0.98284
 Alpha  occ. eigenvalues --   -0.94863  -0.93077  -0.89821  -0.79964  -0.73496
 Alpha  occ. eigenvalues --   -0.66495  -0.64662  -0.63797  -0.61652  -0.58891
 Alpha  occ. eigenvalues --   -0.52520  -0.51926  -0.49941  -0.46866  -0.44667
 Alpha  occ. eigenvalues --   -0.44416  -0.40834  -0.40426  -0.39619  -0.39504
 Alpha  occ. eigenvalues --   -0.38350  -0.38074  -0.34908  -0.34155  -0.33782
 Alpha  occ. eigenvalues --   -0.32705  -0.31577  -0.31208  -0.30783  -0.30164
 Alpha  occ. eigenvalues --   -0.28594  -0.27986  -0.27144  -0.26523  -0.24801
 Alpha  occ. eigenvalues --   -0.24318  -0.23913  -0.23536  -0.22558  -0.21249
 Alpha  occ. eigenvalues --   -0.19854  -0.15551  -0.13721  -0.12769  -0.12048
 Alpha  occ. eigenvalues --   -0.08565   0.03793
 Alpha virt. eigenvalues --    0.05704   0.06605   0.07808   0.08659   0.08887
 Alpha virt. eigenvalues --    0.09681   0.10469   0.10878   0.11243   0.11646
 Alpha virt. eigenvalues --    0.11982   0.13171   0.13483   0.13771   0.14611

  Beta  occ. eigenvalues --  -19.08156 -19.06461 -19.04077 -19.02448 -18.94104
  Beta  occ. eigenvalues --  -14.21204 -10.21237 -10.14039 -10.12603 -10.11685
  Beta  occ. eigenvalues --  -10.11642 -10.10201 -10.05399 -10.04809 -10.04635
  Beta  occ. eigenvalues --  -10.04039 -10.02108 -10.01613  -1.02070  -0.98274
  Beta  occ. eigenvalues --   -0.94729  -0.93027  -0.89480  -0.79836  -0.73289
  Beta  occ. eigenvalues --   -0.66162  -0.64485  -0.63689  -0.61395  -0.58600
  Beta  occ. eigenvalues --   -0.52372  -0.51464  -0.49839  -0.46699  -0.44588
  Beta  occ. eigenvalues --   -0.44196  -0.40750  -0.40362  -0.39571  -0.39365
  Beta  occ. eigenvalues --   -0.38352  -0.37959  -0.34817  -0.33997  -0.33696
  Beta  occ. eigenvalues --   -0.32519  -0.31485  -0.31124  -0.30286  -0.30040
  Beta  occ. eigenvalues --   -0.28435  -0.27822  -0.26994  -0.25948  -0.24581
  Beta  occ. eigenvalues --   -0.24177  -0.23761  -0.23437  -0.21987  -0.21031
  Beta  occ. eigenvalues --   -0.19690  -0.14436  -0.13345  -0.12240  -0.11570
  Beta  occ. eigenvalues --   -0.07419
  Beta virt. eigenvalues --    0.06224   0.06673   0.07949   0.08623   0.08865
  Beta virt. eigenvalues --    0.09096   0.09629   0.10394   0.10831   0.11388
  Beta virt. eigenvalues --    0.11549   0.11947   0.13126   0.13550   0.14026

 Mulliken charges and spin densities:
               1          2
     1  C   -0.293697  -0.024209
     2  O   -0.270082  -0.000529
     3  C   -0.782298  -0.087166
     4  C   -0.449860   0.130881
     5  C   -0.354959  -0.039707
     6  C   -0.432863   0.175374
     7  C    1.346384  -0.064649
     8  C   -0.031442   0.062382
     9  C    0.325332   0.051525
    10  C   -0.248878   0.364381
    11  C   -0.107687   0.066327
    12  O   -0.399139   0.072002
    13  N   -0.237940   0.043651
    14  C    0.114114  -0.620297
    15  C   -0.028642   0.144370
    16  O   -0.303493   0.009586
    17  O   -0.131168  -0.005245
    18  O   -0.290182   0.014135
    19  H    0.142556   0.008581
    20  H    0.141031   0.024168
    21  H    0.154324   0.006478
    22  H    0.152631   0.003746
    23  H    0.077295  -0.012767
    24  H    0.111219  -0.044605
    25  H    0.040723   0.069691
    26  H    0.159736   0.007034
    27  H    0.260421   0.039118
    28  H   -0.013152   0.192914
    29  H    0.174202   0.024377
    30  H   -0.104860   0.388814
    31  H    0.280377  -0.000360
 Sum of Mulliken charges =  -1.00000   1.00000

 Dipole moment (field-independent basis, Debye):
    X=             -4.4699    Y=              5.9720    Z=             -1.5233  Tot=              7.6135
 Quadrupole moment (field-independent basis, Debye-Ang):
   XX=           -168.3990   YY=           -136.6444   ZZ=           -117.3388
   XY=              0.9772   XZ=             -7.7620   YZ=              3.7100

 Summary of Natural Population Analysis:

                                       Natural Population
                Natural  -----------------------------------------------
    Atom  No    Charge         Core      Valence    Rydberg      Total
 -----------------------------------------------------------------------
      C    1   -0.09835      0.99962     2.09063    0.00810     3.09835
      O    2   -0.29451      0.99985     3.28496    0.00970     4.29451
      C    3    0.10813      0.99935     1.88202    0.01049     2.89187
      C    4    0.17553      0.99937     1.81262    0.01248     2.82447
      C    5   -0.14538      0.99955     2.13717    0.00867     3.14538
      C    6   -0.06021      0.99954     2.05304    0.00763     3.06021
      C    7   -0.04118      0.99952     2.03249    0.00917     3.04118
      C    8   -0.10206      0.99950     2.09515    0.00741     3.10206
      C    9   -0.02997      0.99952     2.02068    0.00977     3.02997
      C   10   -0.12458      0.99949     2.11645    0.00864     3.12458
      C   11    0.34386      0.99964     1.63397    0.02253     2.65614
      O   12   -0.31026      0.99988     3.30436    0.00603     4.31026
      N   13   -0.32888      0.99967     2.81964    0.00956     3.82888
      C   14   -0.13742      0.99957     2.12664    0.01121     3.13742
      C   15    0.40441      0.99974     1.56999    0.02586     2.59559
      O   16   -0.30553      0.99987     3.29914    0.00652     4.30553
      O   17   -0.34600      0.99987     3.33947    0.00666     4.34600
      O   18   -0.34174      0.99988     3.33515    0.00671     4.34174
      H   19    0.08653      0.00000     0.41273    0.00075     0.41347
      H   20    0.08638      0.00000     0.41195    0.00167     0.41362
      H   21    0.08556      0.00000     0.41286    0.00159     0.41444
      H   22    0.09900      0.00000     0.39996    0.00104     0.40100
      H   23    0.09638      0.00000     0.40232    0.00129     0.40362
      H   24    0.10513      0.00000     0.39368    0.00119     0.39487
      H   25    0.09205      0.00000     0.40537    0.00258     0.40795
      H   26    0.09592      0.00000     0.40299    0.00109     0.40408
      H   27    0.18930      0.00000     0.30772    0.00298     0.31070
      H   28    0.09958      0.00000     0.39937    0.00105     0.40042
      H   29    0.12035      0.00000     0.37855    0.00110     0.37965
      H   30    0.24031      0.00000     0.25303    0.00666     0.25969
      H   31    0.23765      0.00000     0.25990    0.00244     0.26235
 =======================================================================
   * Total *   -0.00000     17.99344    47.79399    0.21257    66.00000

 Normal termination of Gaussian 16 at Sat Dec 12 00:05:59 2020.
