 Gaussian 16, Revision A.03,

 -----------------------------------------------------------
 # opt freq B3LYP/6-31G(d) empiricaldispersion=gd3bj scf=xqc
 -----------------------------------------------------------

 ------------------------------
 CID_20160631_JID_5790_neutraal
 ------------------------------
 Symbolic Z-matrix:
 Charge =  0 Multiplicity = 1

 SCF Done:  E(RB3LYP) =  -692.597948581     A.U. after   15 cycles
 SCF Done:  E(RB3LYP) =  -692.601276375     A.U. after   14 cycles
 SCF Done:  E(RB3LYP) =  -692.599753876     A.U. after   15 cycles
 SCF Done:  E(RB3LYP) =  -692.601261284     A.U. after   13 cycles
 SCF Done:  E(RB3LYP) =  -692.603016309     A.U. after   10 cycles
 SCF Done:  E(RB3LYP) =  -692.602971435     A.U. after   14 cycles
 SCF Done:  E(RB3LYP) =  -692.603461940     A.U. after   13 cycles
 SCF Done:  E(RB3LYP) =  -692.604363447     A.U. after   13 cycles
 SCF Done:  E(RB3LYP) =  -692.604485803     A.U. after   12 cycles
 SCF Done:  E(RB3LYP) =  -692.604543346     A.U. after   12 cycles
 SCF Done:  E(RB3LYP) =  -692.604593648     A.U. after   11 cycles
 SCF Done:  E(RB3LYP) =  -692.604617049     A.U. after   10 cycles
 SCF Done:  E(RB3LYP) =  -692.604627649     A.U. after   10 cycles
 SCF Done:  E(RB3LYP) =  -692.604630950     A.U. after    9 cycles
 SCF Done:  E(RB3LYP) =  -692.604631514     A.U. after    9 cycles
 SCF Done:  E(RB3LYP) =  -692.604631799     A.U. after    8 cycles
 Optimization completed.
    -- Stationary point found.
 Normal termination of Gaussian 16 at Thu Dec 10 17:08:44 2020.

 --------------------------------------------------------------------
 #N Geom=AllCheck Guess=TCheck SCRF=Check GenChk RB3LYP/6-31G(d) Freq
 --------------------------------------------------------------------

 Structure from the checkpoint file:  "JID_5790.chk"
 ------------------------------
 CID_20160631_JID_5790_neutraal
 ------------------------------
 Charge =  0 Multiplicity = 1

 SCF Done:  E(RB3LYP) =  -692.604631799     A.U. after    1 cycles

  Exact polarizability: 154.132   4.672 135.540 -24.343   7.555  99.549
 Approx polarizability: 214.016   1.898 218.344 -52.559  21.332 161.588

                      1                      2                      3
                      A                      A                      A
 Frequencies --     22.5073                41.8947                66.9645
 Red. masses --      4.9772                 3.7100                 3.3831
 Frc consts  --      0.0015                 0.0038                 0.0089
 IR Inten    --      1.3824                 0.1291                 2.3888

                      4                      5                      6
                      A                      A                      A
 Frequencies --     80.7847               125.5737               151.9734
 Red. masses --      4.7100                 5.3862                 2.5111
 Frc consts  --      0.0181                 0.0500                 0.0342
 IR Inten    --      0.5594                 1.4107                18.3469

                      7                      8                      9
                      A                      A                      A
 Frequencies --    158.8034               175.3452               207.4910
 Red. masses --      4.9605                 3.8058                 1.6844
 Frc consts  --      0.0737                 0.0689                 0.0427
 IR Inten    --      0.4860                 1.3589                 1.3424

                     10                     11                     12
                      A                      A                      A
 Frequencies --    233.1810               241.9962               273.0414
 Red. masses --      2.5922                 2.4125                 2.0458
 Frc consts  --      0.0830                 0.0832                 0.0899
 IR Inten    --     13.1956                 1.5373                 2.4960

                     13                     14                     15
                      A                      A                      A
 Frequencies --    318.1632               339.3302               395.5801
 Red. masses --      3.3899                 2.5185                 5.0543
 Frc consts  --      0.2022                 0.1709                 0.4660
 IR Inten    --      6.2236                 3.5935                 1.0940

                     16                     17                     18
                      A                      A                      A
 Frequencies --    416.0712               446.1534               462.5887
 Red. masses --      3.0616                 3.7776                 2.5039
 Frc consts  --      0.3123                 0.4430                 0.3157
 IR Inten    --      0.1443                 0.2145                 4.5482

                     19                     20                     21
                      A                      A                      A
 Frequencies --    537.1286               543.2968               556.1113
 Red. masses --      3.3774                 4.6214                 3.0328
 Frc consts  --      0.5741                 0.8037                 0.5526
 IR Inten    --      9.4715                15.6619                 7.1492

                     22                     23                     24
                      A                      A                      A
 Frequencies --    633.8021               669.5381               707.7255
 Red. masses --      6.3821                 4.5351                 1.8440
 Frc consts  --      1.5105                 1.1978                 0.5442
 IR Inten    --      0.4188                31.9985                39.2192

                     25                     26                     27
                      A                      A                      A
 Frequencies --    743.4093               774.3287               790.9344
 Red. masses --      4.3162                 1.9331                 1.8608
 Frc consts  --      1.4054                 0.6829                 0.6859
 IR Inten    --      9.5303                11.1949                11.8528

                     28                     29                     30
                      A                      A                      A
 Frequencies --    866.8810               872.4441               941.1659
 Red. masses --      2.5447                 1.2493                 2.2085
 Frc consts  --      1.1267                 0.5603                 1.1526
 IR Inten    --      4.2494                 0.8409                17.7692

                     31                     32                     33
                      A                      A                      A
 Frequencies --    947.3821               965.2813               992.2218
 Red. masses --      1.9389                 1.6076                 1.3592
 Frc consts  --      1.0253                 0.8825                 0.7884
 IR Inten    --     11.5251                 3.9565                 0.6955

                     34                     35                     36
                      A                      A                      A
 Frequencies --   1007.2270              1021.6439              1023.7696
 Red. masses --      1.4700                 2.3863                 5.5033
 Frc consts  --      0.8787                 1.4675                 3.3985
 IR Inten    --      2.5529                13.2992                 2.4111

                     37                     38                     39
                      A                      A                      A
 Frequencies --   1053.7900              1066.1890              1076.5416
 Red. masses --      2.9777                 2.1193                 2.2659
 Frc consts  --      1.9482                 1.4195                 1.5472
 IR Inten    --      4.4784                 1.5066                 8.1639

                     40                     41                     42
                      A                      A                      A
 Frequencies --   1104.4739              1114.2517              1117.5507
 Red. masses --      2.2082                 2.1213                 1.5598
 Frc consts  --      1.5870                 1.5518                 1.1478
 IR Inten    --     16.2683                12.9991                 2.8609

                     43                     44                     45
                      A                      A                      A
 Frequencies --   1164.8377              1174.1720              1195.2498
 Red. masses --      5.4022                 3.1216                 1.1040
 Frc consts  --      4.3187                 2.5357                 0.9292
 IR Inten    --     94.9799               110.1937                 0.9155

                     46                     47                     48
                      A                      A                      A
 Frequencies --   1200.5089              1215.1236              1227.2829
 Red. masses --      1.3660                 1.1582                 1.5040
 Frc consts  --      1.1599                 1.0075                 1.3347
 IR Inten    --     21.0924                14.1720                25.9078

                     49                     50                     51
                      A                      A                      A
 Frequencies --   1272.4720              1273.1841              1292.2497
 Red. masses --      1.5343                 1.2161                 1.5991
 Frc consts  --      1.4637                 1.1614                 1.5733
 IR Inten    --     62.4526                 9.2794                20.3557

                     52                     53                     54
                      A                      A                      A
 Frequencies --   1323.9882              1355.1008              1363.3340
 Red. masses --      1.7521                 1.8331                 1.1413
 Frc consts  --      1.8095                 1.9832                 1.2498
 IR Inten    --     95.2161                 5.7970                 7.1961

                     55                     56                     57
                      A                      A                      A
 Frequencies --   1373.2893              1391.6961              1405.0629
 Red. masses --      2.8901                 1.2807                 1.3704
 Frc consts  --      3.2113                 1.4615                 1.5941
 IR Inten    --      4.6615                 4.4158                 5.9482

                     58                     59                     60
                      A                      A                      A
 Frequencies --   1428.0435              1448.9674              1494.4026
 Red. masses --      1.3537                 1.2689                 1.0972
 Frc consts  --      1.6265                 1.5696                 1.4437
 IR Inten    --      9.1040                14.1936                 4.4371

                     61                     62                     63
                      A                      A                      A
 Frequencies --   1497.9986              1503.5798              1510.1403
 Red. masses --      2.2803                 1.1544                 1.0863
 Frc consts  --      3.0149                 1.5376                 1.4596
 IR Inten    --     14.1014                 2.2559                 8.5699

                     64                     65                     66
                      A                      A                      A
 Frequencies --   1517.3629              1535.7105              1538.1468
 Red. masses --      1.0558                 1.0746                 1.1164
 Frc consts  --      1.4322                 1.4933                 1.5562
 IR Inten    --      3.4316                 1.4372                 5.8244

                     67                     68                     69
                      A                      A                      A
 Frequencies --   1542.5327              1569.9261              1639.2106
 Red. masses --      2.0044                 1.0846                 5.4606
 Frc consts  --      2.8099                 1.5749                 8.6450
 IR Inten    --      1.6548                 7.8189                 9.4185

                     70                     71                     72
                      A                      A                      A
 Frequencies --   1661.4320              1756.3400              2980.3181
 Red. masses --      5.4595                11.3938                 1.0690
 Frc consts  --      8.8791                20.7078                 5.5946
 IR Inten    --     29.1550               152.4580                59.7207

                     73                     74                     75
                      A                      A                      A
 Frequencies --   3000.0513              3041.5345              3047.7538
 Red. masses --      1.0458                 1.0637                 1.0655
 Frc consts  --      5.5458                 5.7976                 5.8315
 IR Inten    --    101.4467                10.2964                21.9966

                     76                     77                     78
                      A                      A                      A
 Frequencies --   3056.7571              3068.0730              3073.4969
 Red. masses --      1.0804                 1.0949                 1.0633
 Frc consts  --      5.9478                 6.0721                 5.9181
 IR Inten    --     58.3228                38.4272                12.2351

                     79                     80                     81
                      A                      A                      A
 Frequencies --   3085.7534              3096.8029              3121.3045
 Red. masses --      1.1030                 1.0990                 1.1072
 Frc consts  --      6.1880                 6.2098                 6.3555
 IR Inten    --     20.5994                45.9068                33.8975

                     82                     83                     84
                      A                      A                      A
 Frequencies --   3136.3470              3186.2509              3198.0992
 Red. masses --      1.0999                 1.0857                 1.0900
 Frc consts  --      6.3748                 6.4943                 6.5686
 IR Inten    --     25.3480                 0.3217                17.9652

                     85                     86                     87
                      A                      A                      A
 Frequencies --   3209.1659              3227.8161              3236.6061
 Red. masses --      1.0952                 1.0927                 1.0926
 Frc consts  --      6.6452                 6.7077                 6.7438
 IR Inten    --     25.4990                 5.8884                 3.7523

 - Thermochemistry -
 -------------------
 Temperature   298.150 Kelvin.  Pressure   1.00000 Atm.
 Atom     1 has atomic number  6 and mass  12.00000

 Molecular mass:   208.10994 amu.
 Principal axes and moments of inertia in atomic units:
                           1         2         3
     Eigenvalues --  2064.605874012.162674731.80083
           X            0.99998  -0.00566  -0.00335
           Y            0.00567   0.99998   0.00348
           Z            0.00333  -0.00350   0.99999
 This molecule is an asymmetric top.
 Rotational symmetry number  1.
 Warning -- assumption of classical behavior for rotation
           may cause significant error
 Rotational temperatures (Kelvin)      0.04195     0.02159     0.01830
 Rotational constants (GHZ):           0.87413     0.44982     0.38141
 Zero-point vibrational energy     693367.6 (Joules/Mol)
                                  165.71883 (Kcal/Mol)
 Warning -- explicit consideration of  21 degrees of freedom as
           vibrations may cause significant error
 Vibrational temperatures:     32.38    60.28    96.35   116.23   180.67
          (Kelvin)            218.66   228.48   252.28   298.53   335.50
                              348.18   392.85   457.77   488.22   569.15
                              598.63   641.92   665.56   772.81   781.68
                              800.12   911.90   963.32  1018.26  1069.60
                             1114.09  1137.98  1247.25  1255.25  1354.13
                             1363.07  1388.82  1427.59  1449.18  1469.92
                             1472.98  1516.17  1534.01  1548.90  1589.09
                             1603.16  1607.91  1675.94  1689.37  1719.70
                             1727.26  1748.29  1765.79  1830.80  1831.83
                             1859.26  1904.92  1949.69  1961.53  1975.86
                             2002.34  2021.57  2054.64  2084.74  2150.11
                             2155.29  2163.32  2172.76  2183.15  2209.54
                             2213.05  2219.36  2258.77  2358.46  2390.43
                             2526.98  4288.01  4316.40  4376.09  4385.04
                             4397.99  4414.27  4422.08  4439.71  4455.61
                             4490.86  4512.50  4584.30  4601.35  4617.27
                             4644.11  4656.75

 Zero-point correction=                           0.264090 (Hartree/Particle)
 Thermal correction to Energy=                    0.278729
 Thermal correction to Enthalpy=                  0.279673
 Thermal correction to Gibbs Free Energy=         0.221274
 Sum of electronic and zero-point Energies=           -692.340542
 Sum of electronic and thermal Energies=              -692.325903
 Sum of electronic and thermal Enthalpies=            -692.324959
 Sum of electronic and thermal Free Energies=         -692.383358

                     E (Thermal)             CV                S
                      KCal/Mol        Cal/Mol-Kelvin    Cal/Mol-Kelvin
 Total                  174.905             54.596            122.911
 Electronic               0.000              0.000              0.000
 Translational            0.889              2.981             41.903
 Rotational               0.889              2.981             32.039
 Vibrational            173.127             48.634             48.969
 Vibration     1          0.593              1.985              6.400
 Vibration     2          0.595              1.980              5.167
 Vibration     3          0.598              1.970              4.241
 Vibration     4          0.600              1.962              3.872
 Vibration     5          0.611              1.927              3.013
 Vibration     6          0.619              1.900              2.647
 Vibration     7          0.621              1.893              2.564
 Vibration     8          0.627              1.873              2.377
 Vibration     9          0.641              1.829              2.066
 Vibration    10          0.654              1.790              1.854
 Vibration    11          0.658              1.776              1.788
 Vibration    12          0.676              1.723              1.577
 Vibration    13          0.705              1.639              1.320
 Vibration    14          0.719              1.597              1.215
 Vibration    15          0.762              1.480              0.979
 Vibration    16          0.779              1.435              0.905
 Vibration    17          0.805              1.369              0.807
 Vibration    18          0.820              1.333              0.759
 Vibration    19          0.892              1.168              0.571
 Vibration    20          0.898              1.154              0.558
 Vibration    21          0.912              1.126              0.532

                           ! Non-Optimized Parameters !
 Normal termination of Gaussian 16 at Thu Dec 10 17:20:03 2020.

 ----------------------------------------------------------------------
 # B3LYP/6-311++G(d,p) empiricaldispersion=gd3bj scf=xqc pop=npa geom=c
 heck
 ----------------------------------------------------------------------

 --------------------------------------
 CID_20160631_JID_5790_Energie_neutraal
 --------------------------------------
 Structure from the checkpoint file:  "JID_5790.chk"
 Charge =  0 Multiplicity = 1

 SCF Done:  E(RB3LYP) =  -692.800255156     A.U. after   16 cycles
 Normal termination of Gaussian 16 at Thu Dec 10 17:25:26 2020.

 ----------------------------------------------------------------------
 # B3LYP/6-311++G(d,p) empiricaldispersion=gd3bj scf=xqc pop=npa geom=c
 heck
 ----------------------------------------------------------------------

 ------------------------------------
 CID_20160631_JID_5790_Energie_kation
 ------------------------------------
 Structure from the checkpoint file:  "JID_5790.chk"
 Charge =  1 Multiplicity = 2

 SCF Done:  E(UB3LYP) =  -692.487594038     A.U. after   31 cycles
 Normal termination of Gaussian 16 at Thu Dec 10 17:41:23 2020.
 Gaussian 16:  ES64L-G16RevA.03 25-Dec-2016

 ----------------------------------------------------------------------
 # B3LYP/6-311++G(d,p) empiricaldispersion=gd3bj scf=xqc pop=npa geom=c
 heck
 ----------------------------------------------------------------------

 -----------------------------------
 CID_20160631_JID_5790_Energie_anion
 -----------------------------------
 Structure from the checkpoint file:  "JID_5790.chk"
 Charge = -1 Multiplicity = 2

                         Standard orientation:
 ---------------------------------------------------------------------
 Center     Atomic      Atomic             Coordinates (Angstroms)
 Number     Number       Type             X           Y           Z
 ---------------------------------------------------------------------
      1          6           0       -1.710165    2.612702   -0.406087
      2          8           0       -1.805087    1.302485   -0.928205
      3          6           0       -2.822294    0.537014   -0.307064
      4          6           0       -2.786596   -0.870793   -0.906758
      5          6           0       -1.399117   -1.517913   -0.992226
      6          8           0       -0.930554   -2.185547    0.184869
      7          6           0       -0.812178   -1.411872    1.360215
      8          6           0        0.011112   -0.115587    1.298928
      9          8           0       -0.381298    0.835317    1.963981
     10          6           0        1.281298   -0.047612    0.526378
     11          6           0        1.919239    1.198630    0.424471
     12          6           0        3.119285    1.319662   -0.265725
     13          6           0        3.701542    0.192776   -0.854466
     14          6           0        3.076890   -1.050981   -0.752689
     15          6           0        1.868444   -1.174676   -0.069009
     16          1           0       -2.645763    3.174700   -0.557430
     17          1           0       -0.903333    3.112834   -0.948192
     18          1           0       -1.470685    2.595532    0.665796
     19          1           0       -2.671100    0.530891    0.780683
     20          1           0       -3.810361    0.991872   -0.493026
     21          1           0       -3.475292   -1.526187   -0.359331
     22          1           0       -3.161081   -0.802974   -1.936049
     23          1           0       -1.423289   -2.315704   -1.739620
     24          1           0       -0.671089   -0.768399   -1.320898
     25          1           0       -1.789105   -1.135823    1.774718
     26          1           0       -0.324999   -2.070444    2.091583
     27          1           0        1.452007    2.054573    0.899125
     28          1           0        3.605274    2.287853   -0.345852
     29          1           0        4.640742    0.286016   -1.392819
     30          1           0        3.529361   -1.926230   -1.209866
     31          1           0        1.369449   -2.134647   -0.009791
 ---------------------------------------------------------------------

 SCF Done:  E(UB3LYP) =  -692.812793009     A.U. after   27 cycles

 The electronic state is 2-A.
 Alpha  occ. eigenvalues --  -19.00759 -18.99201 -18.91190 -10.10048 -10.09049
 Alpha  occ. eigenvalues --  -10.08905 -10.07123 -10.06131 -10.05115 -10.02285
 Alpha  occ. eigenvalues --  -10.02217 -10.01337 -10.01238 -10.00871 -10.00636
 Alpha  occ. eigenvalues --   -0.92035  -0.90186  -0.85315  -0.69898  -0.66972
 Alpha  occ. eigenvalues --   -0.60699  -0.59415  -0.59229  -0.55994  -0.52163
 Alpha  occ. eigenvalues --   -0.47622  -0.45909  -0.44878  -0.39606  -0.38785
 Alpha  occ. eigenvalues --   -0.37875  -0.35982  -0.35192  -0.33670  -0.33096
 Alpha  occ. eigenvalues --   -0.31742  -0.30054  -0.29509  -0.28304  -0.27375
 Alpha  occ. eigenvalues --   -0.26609  -0.26515  -0.25608  -0.24972  -0.23251
 Alpha  occ. eigenvalues --   -0.22521  -0.20691  -0.20270  -0.19568  -0.19115
 Alpha  occ. eigenvalues --   -0.18403  -0.14833  -0.13055  -0.10817  -0.10356
 Alpha  occ. eigenvalues --   -0.07436   0.04841
 Alpha virt. eigenvalues --    0.07871   0.09129   0.09322   0.10406   0.10660
 Alpha virt. eigenvalues --    0.10856   0.12185   0.12495   0.12914   0.13383
 Alpha virt. eigenvalues --    0.13553   0.13704   0.14878   0.15523   0.15965

  Beta  occ. eigenvalues --  -19.00751 -18.99175 -18.90602 -10.10047 -10.09040
  Beta  occ. eigenvalues --  -10.08901 -10.07156 -10.06130 -10.04698 -10.02366
  Beta  occ. eigenvalues --  -10.02276 -10.01085 -10.01013 -10.00687 -10.00541
  Beta  occ. eigenvalues --   -0.92022  -0.90114  -0.84237  -0.69575  -0.66960
  Beta  occ. eigenvalues --   -0.60375  -0.59102  -0.58956  -0.55909  -0.51980
  Beta  occ. eigenvalues --   -0.47183  -0.45512  -0.44743  -0.39257  -0.38742
  Beta  occ. eigenvalues --   -0.37787  -0.35799  -0.35150  -0.33472  -0.33014
  Beta  occ. eigenvalues --   -0.31508  -0.29893  -0.29301  -0.28145  -0.27241
  Beta  occ. eigenvalues --   -0.26511  -0.26297  -0.25395  -0.24598  -0.23055
  Beta  occ. eigenvalues --   -0.21487  -0.20658  -0.20028  -0.19052  -0.18361
  Beta  occ. eigenvalues --   -0.17050  -0.14762  -0.12938  -0.10045  -0.08602
  Beta  occ. eigenvalues --   -0.06943
  Beta virt. eigenvalues --    0.07807   0.08988   0.09261   0.10327   0.10556
  Beta virt. eigenvalues --    0.10766   0.11409   0.12309   0.12443   0.12847
  Beta virt. eigenvalues --    0.13386   0.13641   0.13900   0.14820   0.15474

 Mulliken charges and spin densities:
               1          2
     1  C   -0.256418  -0.051000
     2  O   -0.064656  -0.005172
     3  C   -0.146312  -0.005454
     4  C   -0.423560  -0.017835
     5  C   -0.287710   0.038040
     6  O   -0.059861  -0.010124
     7  C   -0.328218   0.045227
     8  C   -0.559526   0.081908
     9  O   -0.365589   0.210893
    10  C    1.329232   0.127804
    11  C    0.081015   0.205038
    12  C   -0.398628  -0.058722
    13  C   -0.380532   0.242740
    14  C   -0.576697  -0.061748
    15  C   -0.534514   0.108784
    16  H    0.065026   0.016793
    17  H    0.118589   0.014538
    18  H    0.172567   0.019048
    19  H    0.121949  -0.001513
    20  H    0.090585   0.012134
    21  H    0.144880   0.002859
    22  H    0.142249   0.001337
    23  H    0.139594   0.011674
    24  H    0.160378  -0.001628
    25  H    0.151610  -0.001683
    26  H    0.065664   0.096300
    27  H    0.143768  -0.011114
    28  H    0.117329   0.004149
    29  H    0.090023  -0.020751
    30  H    0.116516   0.007015
    31  H    0.131246   0.000464
 Sum of Mulliken charges =  -1.00000   1.00000

 Dipole moment (field-independent basis, Debye):
    X=             -4.2615    Y=             -0.0280    Z=             -2.8659  Tot=              5.1357
 Quadrupole moment (field-independent basis, Debye-Ang):
   XX=           -116.6192   YY=           -106.0252   ZZ=           -110.3224
   XY=              0.0485   XZ=              1.0940   YZ=             -1.1112

 Summary of Natural Population Analysis:

                                       Natural Population
                Natural  -----------------------------------------------
    Atom  No    Charge         Core      Valence    Rydberg      Total
 -----------------------------------------------------------------------
      C    1   -0.10047      0.99962     2.09263    0.00822     3.10047
      O    2   -0.29954      0.99988     3.28787    0.01179     4.29954
      C    3   -0.01160      0.99959     2.00209    0.00992     3.01160
      C    4   -0.21199      0.99963     2.20603    0.00633     3.21199
      C    5   -0.01174      0.99956     2.00090    0.01128     3.01174
      O    6   -0.30559      0.99989     3.29503    0.01066     4.30559
      C    7   -0.05252      0.99955     2.03783    0.01514     3.05252
      C    8    0.30315      0.99962     1.67296    0.02427     2.69685
      O    9   -0.25835      0.99988     3.25203    0.00645     4.25835
      C   10   -0.05621      0.99947     2.04538    0.01135     3.05621
      C   11   -0.04487      0.99953     2.03663    0.00870     3.04487
      C   12   -0.13389      0.99957     2.12524    0.00908     3.13389
      C   13   -0.04770      0.99957     2.03860    0.00953     3.04770
      C   14   -0.13111      0.99957     2.12217    0.00937     3.13111
      C   15   -0.06436      0.99954     2.05707    0.00775     3.06436
      H   16    0.06435      0.00000     0.43364    0.00201     0.43565
      H   17    0.08784      0.00000     0.41092    0.00124     0.41216
      H   18    0.09960      0.00000     0.39931    0.00109     0.40040
      H   19    0.09311      0.00000     0.40533    0.00155     0.40689
      H   20    0.06887      0.00000     0.42967    0.00146     0.43113
      H   21    0.09725      0.00000     0.40161    0.00114     0.40275
      H   22    0.09506      0.00000     0.40372    0.00122     0.40494
      H   23    0.08243      0.00000     0.41650    0.00107     0.41757
      H   24    0.09971      0.00000     0.39908    0.00121     0.40029
      H   25    0.07983      0.00000     0.41884    0.00133     0.42017
      H   26    0.09533      0.00000     0.40296    0.00170     0.40467
      H   27    0.10188      0.00000     0.39674    0.00138     0.39812
      H   28    0.08859      0.00000     0.41033    0.00107     0.41141
      H   29    0.08333      0.00000     0.41516    0.00151     0.41667
      H   30    0.08861      0.00000     0.41033    0.00106     0.41139
      H   31    0.10101      0.00000     0.39675    0.00224     0.39899
 =======================================================================
   * Total *   -0.00000     14.99448    40.82335    0.18216    56.00000

 Normal termination of Gaussian 16 at Thu Dec 10 17:56:31 2020.
