 Gaussian 16, Revision A.03,

 -----------------------------------------------------------
 # opt freq B3LYP/6-31G(d) empiricaldispersion=gd3bj scf=xqc
 -----------------------------------------------------------

 -----------------------------
 CID_88171509_JID_187_neutraal
 -----------------------------
 Symbolic Z-matrix:
 Charge =  0 Multiplicity = 1

 SCF Done:  E(RB3LYP) =  -476.113923756     A.U. after   15 cycles
 SCF Done:  E(RB3LYP) =  -476.123914716     A.U. after   14 cycles
 SCF Done:  E(RB3LYP) =  -476.123946066     A.U. after   15 cycles
 SCF Done:  E(RB3LYP) =  -476.126771560     A.U. after   13 cycles
 SCF Done:  E(RB3LYP) =  -476.126929183     A.U. after   14 cycles
 SCF Done:  E(RB3LYP) =  -476.127256090     A.U. after   13 cycles
 SCF Done:  E(RB3LYP) =  -476.127415350     A.U. after   13 cycles
 SCF Done:  E(RB3LYP) =  -476.127878229     A.U. after   13 cycles
 SCF Done:  E(RB3LYP) =  -476.127913822     A.U. after   12 cycles
 SCF Done:  E(RB3LYP) =  -476.127933819     A.U. after   11 cycles
 SCF Done:  E(RB3LYP) =  -476.127938414     A.U. after    9 cycles
 SCF Done:  E(RB3LYP) =  -476.127939036     A.U. after    9 cycles
 SCF Done:  E(RB3LYP) =  -476.127939258     A.U. after    9 cycles
 SCF Done:  E(RB3LYP) =  -476.127939323     A.U. after    8 cycles
 SCF Done:  E(RB3LYP) =  -476.127939341     A.U. after    7 cycles
 Optimization completed.
    -- Stationary point found.
 Normal termination of Gaussian 16 at Tue Dec  8 10:19:22 2020.

 --------------------------------------------------------------------
 #N Geom=AllCheck Guess=TCheck SCRF=Check GenChk RB3LYP/6-31G(d) Freq
 --------------------------------------------------------------------

 Structure from the checkpoint file:  "JID_187.chk"
 -----------------------------
 CID_88171509_JID_187_neutraal
 -----------------------------
 Charge =  0 Multiplicity = 1

 SCF Done:  E(RB3LYP) =  -476.127939341     A.U. after    1 cycles

  Exact polarizability: 113.132 -16.746  77.153 -12.797   5.535  51.790
 Approx polarizability: 184.614 -48.630 114.355 -37.342  20.593  84.762

                      1                      2                      3
                      A                      A                      A
 Frequencies --     45.9252                55.0059                98.4479
 Red. masses --      4.4861                 7.5956                 3.1050
 Frc consts  --      0.0056                 0.0135                 0.0177
 IR Inten    --      0.6469                 0.4540                 0.5065

                      4                      5                      6
                      A                      A                      A
 Frequencies --    118.4634               127.8528               210.0855
 Red. masses --      5.0243                 3.1815                 2.9235
 Frc consts  --      0.0415                 0.0306                 0.0760
 IR Inten    --      0.9547                 1.2705                 0.8212

                      7                      8                      9
                      A                      A                      A
 Frequencies --    237.3439               336.5972               351.4514
 Red. masses --      3.3561                 2.9139                 4.3823
 Frc consts  --      0.1114                 0.1945                 0.3189
 IR Inten    --      1.2529                 9.0344                12.5640

                     10                     11                     12
                      A                      A                      A
 Frequencies --    408.6167               470.6622               520.6154
 Red. masses --      4.0851                 1.9079                 3.0161
 Frc consts  --      0.4019                 0.2490                 0.4816
 IR Inten    --     10.2436                 3.7478                 1.0060

                     13                     14                     15
                      A                      A                      A
 Frequencies --    562.7265               578.3342               638.8893
 Red. masses --      6.2977                10.9166                 3.2577
 Frc consts  --      1.1750                 2.1513                 0.7835
 IR Inten    --      1.3760                22.8935                45.0421

                     16                     17                     18
                      A                      A                      A
 Frequencies --    690.9262               770.7244               880.2994
 Red. masses --      2.9539                 3.3714                 3.1309
 Frc consts  --      0.8308                 1.1799                 1.4295
 IR Inten    --      5.6148                12.3717                 4.6432

                     19                     20                     21
                      A                      A                      A
 Frequencies --    930.6695               954.6764               975.6832
 Red. masses --      2.8272                 1.3510                 1.9936
 Frc consts  --      1.4428                 0.7255                 1.1182
 IR Inten    --     45.5019                42.3527                42.6694

                     22                     23                     24
                      A                      A                      A
 Frequencies --    987.6161              1029.1971              1030.4296
 Red. masses --      1.3588                 2.1156                 1.1100
 Frc consts  --      0.7809                 1.3203                 0.6944
 IR Inten    --     36.4218                11.3971                15.4548

                     25                     26                     27
                      A                      A                      A
 Frequencies --   1039.3634              1142.9073              1228.1745
 Red. masses --      1.1131                 2.3796                 1.9567
 Frc consts  --      0.7085                 1.8314                 1.7390
 IR Inten    --     15.7230                 1.8124                48.3046

                     28                     29                     30
                      A                      A                      A
 Frequencies --   1302.8994              1324.5298              1329.5291
 Red. masses --      1.5992                 1.2964                 1.2481
 Frc consts  --      1.5994                 1.3401                 1.2999
 IR Inten    --     31.4559                 0.9090                 3.9547

                     31                     32                     33
                      A                      A                      A
 Frequencies --   1377.8145              1467.3212              1470.0146
 Red. masses --      1.4537                 1.8463                 1.2167
 Frc consts  --      1.6259                 2.3421                 1.5491
 IR Inten    --     12.5650                23.1009                 2.9178

                     34                     35                     36
                      A                      A                      A
 Frequencies --   1478.2190              1705.6498              1726.8043
 Red. masses --      2.3554                 4.1054                 4.5125
 Frc consts  --      3.0324                 7.0370                 7.9278
 IR Inten    --      3.7637                 5.2373                 6.7426

                     37                     38                     39
                      A                      A                      A
 Frequencies --   1779.8044              2336.8596              3085.5210
 Red. masses --     10.8263                12.6461                 1.0841
 Frc consts  --     20.2057                40.6884                 6.0808
 IR Inten    --     95.5132              1052.7196                16.3945

                     40                     41                     42
                      A                      A                      A
 Frequencies --   3159.7360              3174.1605              3183.2554
 Red. masses --      1.0594                 1.0933                 1.0605
 Frc consts  --      6.2317                 6.4903                 6.3315
 IR Inten    --      8.0607                 3.4094                 4.1551

                     43                     44                     45
                      A                      A                      A
 Frequencies --   3197.4570              3244.5501              3268.2732
 Red. masses --      1.0924                 1.1152                 1.1151
 Frc consts  --      6.5805                 6.9167                 7.0179
 IR Inten    --      4.7427                12.2810                 6.7240

 - Thermochemistry -
 -------------------
 Temperature   298.150 Kelvin.  Pressure   1.00000 Atm.
 Atom     1 has atomic number  6 and mass  12.00000

 Molecular mass:   137.04768 amu.
 Principal axes and moments of inertia in atomic units:
                           1         2         3
     Eigenvalues --   910.198671778.743032473.56724
           X            0.99995  -0.00669  -0.00696
           Y            0.00662   0.99992  -0.01080
           Z            0.00704   0.01076   0.99992
 This molecule is an asymmetric top.
 Rotational symmetry number  1.
 Warning -- assumption of classical behavior for rotation
           may cause significant error
 Rotational temperatures (Kelvin)      0.09516     0.04869     0.03502
 Rotational constants (GHZ):           1.98280     1.01462     0.72961
 Zero-point vibrational energy     335158.2 (Joules/Mol)
                                   80.10474 (Kcal/Mol)
 Warning -- explicit consideration of  14 degrees of freedom as
           vibrations may cause significant error
 Vibrational temperatures:     66.08    79.14   141.64   170.44   183.95
          (Kelvin)            302.27   341.48   484.29   505.66   587.91
                              677.18   749.05   809.64   832.09   919.22
                              994.09  1108.90  1266.55  1339.03  1373.57
                             1403.79  1420.96  1480.79  1482.56  1495.41
                             1644.39  1767.07  1874.58  1905.70  1912.90
                             1982.37  2111.15  2115.02  2126.83  2454.05
                             2484.49  2560.74  3362.22  4439.38  4546.16
                             4566.91  4579.99  4600.43  4668.18  4702.32

 Zero-point correction=                           0.127655 (Hartree/Particle)
 Thermal correction to Energy=                    0.137940
 Thermal correction to Enthalpy=                  0.138884
 Thermal correction to Gibbs Free Energy=         0.090811
 Sum of electronic and zero-point Energies=           -476.000284
 Sum of electronic and thermal Energies=              -475.990000
 Sum of electronic and thermal Enthalpies=            -475.989056
 Sum of electronic and thermal Free Energies=         -476.037128

                     E (Thermal)             CV                S
                      KCal/Mol        Cal/Mol-Kelvin    Cal/Mol-Kelvin
 Total                   86.558             35.720            101.177
 Electronic               0.000              0.000              0.000
 Translational            0.889              2.981             40.657
 Rotational               0.889              2.981             29.772
 Vibrational             84.781             29.758             30.747
 Vibration     1          0.595              1.979              4.986
 Vibration     2          0.596              1.976              4.629
 Vibration     3          0.604              1.950              3.485
 Vibration     4          0.609              1.934              3.125
 Vibration     5          0.611              1.925              2.978
 Vibration     6          0.642              1.825              2.043
 Vibration     7          0.656              1.784              1.823
 Vibration     8          0.717              1.602              1.228
 Vibration     9          0.728              1.572              1.160
 Vibration    10          0.773              1.452              0.932
 Vibration    11          0.828              1.315              0.736
 Vibration    12          0.876              1.204              0.609
 Vibration    13          0.918              1.112              0.518
 Vibration    14          0.935              1.078              0.488

 Optimization completed.
    -- Stationary point found.
 Normal termination of Gaussian 16 at Tue Dec  8 10:21:48 2020.

 ----------------------------------------------------------------------
 # B3LYP/6-311++G(d,p) empiricaldispersion=gd3bj scf=xqc pop=npa geom=c
 heck
 ----------------------------------------------------------------------

 -------------------------------------
 CID_88171509_JID_187_Energie_neutraal
 -------------------------------------
 Structure from the checkpoint file:  "JID_187.chk"
 Charge =  0 Multiplicity = 1

 SCF Done:  E(RB3LYP) =  -476.270169831     A.U. after   15 cycles
 Normal termination of Gaussian 16 at Tue Dec  8 10:22:43 2020.

 ----------------------------------------------------------------------
 # B3LYP/6-311++G(d,p) empiricaldispersion=gd3bj scf=xqc pop=npa geom=c
 heck
 ----------------------------------------------------------------------

 -----------------------------------
 CID_88171509_JID_187_Energie_kation
 -----------------------------------
 Structure from the checkpoint file:  "JID_187.chk"
 Charge =  1 Multiplicity = 2

 SCF Done:  E(UB3LYP) =  -475.920977699     A.U. after   33 cycles
 SCF Done:  E(UB3LYP) =  -475.920978201     a.u. after    3 cycles
 Normal termination of Gaussian 16 at Tue Dec  8 10:30:39 2020.
 Gaussian 16:  ES64L-G16RevA.03 25-Dec-2016

 ----------------------------------------------------------------------
 # B3LYP/6-311++G(d,p) empiricaldispersion=gd3bj scf=xqc pop=npa geom=c
 heck
 ----------------------------------------------------------------------

 ----------------------------------
 CID_88171509_JID_187_Energie_anion
 ----------------------------------
 Structure from the checkpoint file:  "JID_187.chk"
 Charge = -1 Multiplicity = 2

                         Standard orientation:
 ---------------------------------------------------------------------
 Center     Atomic      Atomic             Coordinates (Angstroms)
 Number     Number       Type             X           Y           Z
 ---------------------------------------------------------------------
      1          6           0       -1.460984    2.428435   -0.297595
      2          6           0       -0.566535    1.479797   -0.563928
      3          6           0       -0.085600    0.455043    0.443874
      4          6           0       -0.349015   -0.968208   -0.108543
      5          8           0        0.572492   -1.608043   -0.585959
      6          6           0       -1.716255   -1.532800   -0.083431
      7          6           0       -2.803882   -0.931329    0.410178
      8          7           0        1.314428    0.644313    0.724519
      9          6           0        2.307032    0.126653    0.237946
     10          8           0        3.377872   -0.221927   -0.099632
     11          1           0       -1.914426    2.527786    0.686501
     12          1           0       -1.767081    3.150024   -1.049123
     13          1           0       -0.104475    1.404771   -1.547170
     14          1           0       -0.638479    0.589283    1.378926
     15          1           0       -1.776047   -2.529854   -0.512976
     16          1           0       -3.770779   -1.425589    0.393981
     17          1           0       -2.781200    0.067603    0.831949
 ---------------------------------------------------------------------

 SCF Done:  E(UB3LYP) =  -476.297344178     A.U. after   23 cycles

 The electronic state is 2-A.
 Alpha  occ. eigenvalues --  -19.02369 -18.92026 -14.18864 -10.16153 -10.08337
 Alpha  occ. eigenvalues --  -10.05993 -10.04750 -10.03735 -10.00598  -9.99815
 Alpha  occ. eigenvalues --   -0.96221  -0.86780  -0.80570  -0.66652  -0.61564
 Alpha  occ. eigenvalues --   -0.57734  -0.46658  -0.44913  -0.40933  -0.37473
 Alpha  occ. eigenvalues --   -0.36451  -0.33540  -0.32394  -0.30591  -0.30054
 Alpha  occ. eigenvalues --   -0.29385  -0.27750  -0.24320  -0.23285  -0.21947
 Alpha  occ. eigenvalues --   -0.21496  -0.16493  -0.15489  -0.13507  -0.12242
 Alpha  occ. eigenvalues --   -0.08592   0.04090
 Alpha virt. eigenvalues --    0.09370   0.10607   0.11387   0.11829   0.11880
 Alpha virt. eigenvalues --    0.13576   0.14192   0.14348   0.15735   0.15918
 Alpha virt. eigenvalues --    0.17691   0.17856   0.18665   0.19230   0.19566

  Beta  occ. eigenvalues --  -19.02362 -18.91362 -14.18846 -10.16141 -10.08368
  Beta  occ. eigenvalues --  -10.05632 -10.04671 -10.03662 -10.00591  -9.99351
  Beta  occ. eigenvalues --   -0.96206  -0.85705  -0.80418  -0.66419  -0.60907
  Beta  occ. eigenvalues --   -0.57523  -0.45471  -0.44617  -0.40632  -0.37270
  Beta  occ. eigenvalues --   -0.36408  -0.33386  -0.32199  -0.30432  -0.29677
  Beta  occ. eigenvalues --   -0.29087  -0.27572  -0.23830  -0.22801  -0.21182
  Beta  occ. eigenvalues --   -0.19617  -0.16100  -0.15083  -0.13221  -0.09870
  Beta  occ. eigenvalues --   -0.08049
  Beta virt. eigenvalues --    0.09295   0.10402   0.10601   0.11473   0.11897
  Beta virt. eigenvalues --    0.13122   0.13635   0.14138   0.14579   0.15855
  Beta virt. eigenvalues --    0.16058   0.17845   0.18012   0.18778   0.19414

 Mulliken charges and spin densities:
               1          2
     1  C   -0.547867   0.087433
     2  C    0.054339   0.076503
     3  C    0.187215  -0.101989
     4  C   -0.357778   0.298416
     5  O   -0.390270   0.216727
     6  C    0.132584  -0.088085
     7  C   -0.769625   0.493231
     8  N   -0.119489   0.009060
     9  C    0.412100   0.006431
    10  O   -0.346304   0.001739
    11  H    0.088632   0.007682
    12  H    0.088161  -0.000445
    13  H    0.165083  -0.004854
    14  H    0.150642   0.057593
    15  H    0.134176  -0.005542
    16  H    0.084889  -0.020358
    17  H    0.033513  -0.033542
 Sum of Mulliken charges =  -1.00000   1.00000

 Dipole moment (field-independent basis, Debye):
    X=             -0.6277    Y=              3.0299    Z=              0.4044  Tot=              3.1205
 Quadrupole moment (field-independent basis, Debye-Ang):
   XX=            -91.0499   YY=            -75.7948   ZZ=            -65.9168
   XY=              0.5982   XZ=              1.3953   YZ=             -2.2009

 Summary of Natural Population Analysis:

                                       Natural Population
                Natural  -----------------------------------------------
    Atom  No    Charge         Core      Valence    Rydberg      Total
 -----------------------------------------------------------------------
      C    1   -0.18816      0.99957     2.18139    0.00720     3.18816
      C    2   -0.05902      0.99955     2.05004    0.00943     3.05902
      C    3   -0.06601      0.99951     2.05007    0.01643     3.06601
      C    4    0.29898      0.99963     1.67951    0.02188     2.70102
      O    5   -0.23162      0.99988     3.22498    0.00676     4.23162
      C    6   -0.14880      0.99954     2.13850    0.01077     3.14880
      C    7   -0.08120      0.99960     2.07383    0.00778     3.08120
      N    8   -0.28664      0.99953     2.77666    0.01045     3.78664
      C    9    0.42689      0.99961     1.55306    0.02044     2.57311
      O   10   -0.27754      0.99986     3.27000    0.00768     4.27754
      H   11    0.08659      0.00000     0.41232    0.00109     0.41341
      H   12    0.08651      0.00000     0.41237    0.00113     0.41349
      H   13    0.09101      0.00000     0.40784    0.00116     0.40899
      H   14    0.10204      0.00000     0.39600    0.00195     0.39796
      H   15    0.09015      0.00000     0.40781    0.00203     0.40985
      H   16    0.07686      0.00000     0.42188    0.00125     0.42314
      H   17    0.07995      0.00000     0.41885    0.00120     0.42005
 =======================================================================
   * Total *   -0.00000      9.99626    25.87511    0.12863    36.00000

 Normal termination of Gaussian 16 at Tue Dec  8 10:34:02 2020.
