 Gaussian 16, Revision A.03,

 -----------------------------------------------------------
 # opt freq B3LYP/6-31G(d) empiricaldispersion=gd3bj scf=xqc
 -----------------------------------------------------------

 ------------------------------
 CID_10130749_JID_4922_neutraal
 ------------------------------
 Symbolic Z-matrix:
 Charge =  0 Multiplicity = 1

 SCF Done:  E(RB3LYP) =  -1104.77056695     A.U. after   14 cycles
 SCF Done:  E(RB3LYP) =  -1104.77516912     A.U. after   12 cycles
 SCF Done:  E(RB3LYP) =  -1104.77128626     A.U. after   13 cycles
 SCF Done:  E(RB3LYP) =  -1104.77664069     A.U. after   12 cycles
 SCF Done:  E(RB3LYP) =  -1104.77747887     A.U. after   12 cycles
 SCF Done:  E(RB3LYP) =  -1104.77794375     A.U. after   11 cycles
 SCF Done:  E(RB3LYP) =  -1104.77814712     A.U. after   11 cycles
 SCF Done:  E(RB3LYP) =  -1104.77818806     A.U. after   10 cycles
 SCF Done:  E(RB3LYP) =  -1104.77819899     A.U. after   10 cycles
 SCF Done:  E(RB3LYP) =  -1104.77820608     A.U. after   10 cycles
 SCF Done:  E(RB3LYP) =  -1104.80186287     A.U. after   12 cycles
 SCF Done:  E(RB3LYP) =  -1104.80198291     A.U. after   12 cycles
 SCF Done:  E(RB3LYP) =  -1104.80209433     A.U. after   11 cycles
 SCF Done:  E(RB3LYP) =  -1104.80211076     A.U. after   11 cycles
 SCF Done:  E(RB3LYP) =  -1104.80211252     A.U. after    8 cycles
 SCF Done:  E(RB3LYP) =  -1104.80211280     A.U. after    7 cycles
 Optimization completed.
    -- Stationary point found.
 Normal termination of Gaussian 16 at Thu Dec 10 11:37:15 2020.

 --------------------------------------------------------------------
 #N Geom=AllCheck Guess=TCheck SCRF=Check GenChk RB3LYP/6-31G(d) Freq
 --------------------------------------------------------------------

 Structure from the checkpoint file:  "JID_4922.chk"
 ------------------------------
 CID_10130749_JID_4922_neutraal
 ------------------------------
 Charge =  0 Multiplicity = 1

 SCF Done:  E(RB3LYP) =  -1104.80211280     A.U. after    1 cycles

  Exact polarizability: 119.388  -0.382 106.319   0.504   3.920  99.435
 Approx polarizability: 165.310  -1.751 155.562   6.768   5.026 158.396

                      1                      2                      3
                      A                      A                      A
 Frequencies --     53.7965                79.2832                95.6254
 Red. masses --      6.2626                 8.4549                 3.2344
 Frc consts  --      0.0107                 0.0313                 0.0174
 IR Inten    --      2.8547                 3.7033                 0.9465

                      4                      5                      6
                      A                      A                      A
 Frequencies --    125.3965               182.3492               216.3301
 Red. masses --      4.1887                 3.1952                 5.6982
 Frc consts  --      0.0388                 0.0626                 0.1571
 IR Inten    --      3.7379                 1.0519                 2.6614

                      7                      8                      9
                      A                      A                      A
 Frequencies --    242.3432               262.2154               274.5549
 Red. masses --      1.8539                 2.4042                 4.4262
 Frc consts  --      0.0642                 0.0974                 0.1966
 IR Inten    --      0.2038                 2.0557                 5.7828

                     10                     11                     12
                      A                      A                      A
 Frequencies --    283.2956               307.8500               319.6910
 Red. masses --      3.3684                 2.4740                 3.1489
 Frc consts  --      0.1593                 0.1381                 0.1896
 IR Inten    --      5.8244                 1.1970                 9.7923

                     13                     14                     15
                      A                      A                      A
 Frequencies --    356.0526               382.8994               393.8705
 Red. masses --      3.1639                 1.1964                 2.1928
 Frc consts  --      0.2363                 0.1034                 0.2004
 IR Inten    --     17.9718                77.6588                19.6584

                     16                     17                     18
                      A                      A                      A
 Frequencies --    423.8083               441.2728               449.2603
 Red. masses --      2.3964                 4.1132                 4.8939
 Frc consts  --      0.2536                 0.4719                 0.5820
 IR Inten    --      1.2029                 7.0079                 8.8237

                     19                     20                     21
                      A                      A                      A
 Frequencies --    477.9375               496.7335               521.2506
 Red. masses --      4.1823                 2.8524                 3.3869
 Frc consts  --      0.5629                 0.4147                 0.5422
 IR Inten    --     19.7041                 4.6217                 5.1705

                     22                     23                     24
                      A                      A                      A
 Frequencies --    559.6073               583.8120               635.3790
 Red. masses --      4.1274                 2.9841                 3.7673
 Frc consts  --      0.7615                 0.5993                 0.8961
 IR Inten    --     48.2590                21.3128                 3.4159

                     25                     26                     27
                      A                      A                      A
 Frequencies --    741.7746               764.5419               827.6095
 Red. masses --      4.7111                 3.2198                 3.8113
 Frc consts  --      1.5273                 1.1089                 1.5381
 IR Inten    --      9.7411                45.2353                40.2076

                     28                     29                     30
                      A                      A                      A
 Frequencies --    862.9670               876.5149               883.7392
 Red. masses --      2.9644                 1.7333                 2.2891
 Frc consts  --      1.3007                 0.7846                 1.0533
 IR Inten    --     41.3269                10.1986                 6.1360

                     31                     32                     33
                      A                      A                      A
 Frequencies --    910.5252               932.4839               947.8041
 Red. masses --      1.9421                 1.4098                 2.4860
 Frc consts  --      0.9486                 0.7223                 1.3158
 IR Inten    --    111.9190                69.2308                 4.6715

                     34                     35                     36
                      A                      A                      A
 Frequencies --    957.9093               995.4480              1044.5160
 Red. masses --      2.3602                 2.3094                 2.2326
 Frc consts  --      1.2760                 1.3483                 1.4351
 IR Inten    --     54.0642                80.6442                 5.5305

                     37                     38                     39
                      A                      A                      A
 Frequencies --   1070.4536              1108.1017              1119.3640
 Red. masses --      1.8070                 1.7274                 2.4673
 Frc consts  --      1.2199                 1.2497                 1.8214
 IR Inten    --     32.6382                 3.7744                 8.5952

                     40                     41                     42
                      A                      A                      A
 Frequencies --   1131.3372              1139.9507              1153.2305
 Red. masses --      3.3084                 3.5341                 2.2513
 Frc consts  --      2.4949                 2.7058                 1.7641
 IR Inten    --     73.1853               136.7665                 8.6926

                     43                     44                     45
                      A                      A                      A
 Frequencies --   1169.1642              1182.1650              1212.0201
 Red. masses --      2.9983                 2.3846                 2.4583
 Frc consts  --      2.4148                 1.9634                 2.1277
 IR Inten    --     74.1446                56.3510                50.6801

                     46                     47                     48
                      A                      A                      A
 Frequencies --   1241.9143              1251.1848              1301.9933
 Red. masses --      1.8258                 1.1242                 1.3745
 Frc consts  --      1.6592                 1.0369                 1.3728
 IR Inten    --     64.5559                 4.8602                37.2038

                     49                     50                     51
                      A                      A                      A
 Frequencies --   1311.2700              1331.7896              1340.8400
 Red. masses --      1.3465                 2.7282                 1.4832
 Frc consts  --      1.3641                 2.8510                 1.5711
 IR Inten    --     52.2175               116.6330                20.6632

                     52                     53                     54
                      A                      A                      A
 Frequencies --   1360.1083              1382.7629              1396.6472
 Red. masses --      1.2081                 1.2683                 1.5818
 Frc consts  --      1.3167                 1.4288                 1.8179
 IR Inten    --      2.3498                 6.1937                78.2056

                     55                     56                     57
                      A                      A                      A
 Frequencies --   1410.1457              1422.8932              1448.9236
 Red. masses --      1.3059                 1.4169                 1.3543
 Frc consts  --      1.5300                 1.6902                 1.6751
 IR Inten    --      8.8370                57.8857                23.3227

                     58                     59                     60
                      A                      A                      A
 Frequencies --   1452.0021              1458.2999              1493.7852
 Red. masses --      1.4090                 1.2814                 1.0859
 Frc consts  --      1.7503                 1.6056                 1.4276
 IR Inten    --     37.2452               111.0238                15.0637

                     61                     62                     63
                      A                      A                      A
 Frequencies --   1512.3584              1515.7591              1521.5197
 Red. masses --      1.0820                 1.0849                 1.0617
 Frc consts  --      1.4581                 1.4686                 1.4481
 IR Inten    --      0.5673                 0.4290                 4.8423

                     64                     65                     66
                      A                      A                      A
 Frequencies --   1527.7886              1534.6573              1544.7486
 Red. masses --      1.0996                 1.0938                 1.0516
 Frc consts  --      1.5122                 1.5178                 1.4785
 IR Inten    --      8.5108                 6.8862                 3.8627

                     67                     68                     69
                      A                      A                      A
 Frequencies --   2909.1079              2989.5484              3001.8405
 Red. masses --      1.0692                 1.0719                 1.0710
 Frc consts  --      5.3313                 5.6442                 5.6861
 IR Inten    --   1049.8012                41.2711                12.0580

                     70                     71                     72
                      A                      A                      A
 Frequencies --   3017.6923              3036.5485              3091.7130
 Red. masses --      1.0700                 1.0689                 1.0358
 Frc consts  --      5.7408                 5.8068                 5.8335
 IR Inten    --     45.6878                16.6563                 4.9593

                     73                     74                     75
                      A                      A                      A
 Frequencies --   3108.4116              3121.5221              3129.1649
 Red. masses --      1.0625                 1.0935                 1.0959
 Frc consts  --      6.0487                 6.2777                 6.3222
 IR Inten    --      2.7688                31.4540                26.5951

                     76                     77                     78
                      A                      A                      A
 Frequencies --   3140.7455              3157.5408              3164.1134
 Red. masses --      1.0946                 1.0916                 1.1017
 Frc consts  --      6.3615                 6.4124                 6.4987
 IR Inten    --     16.1776                 1.7577                14.3957

                     79                     80                     81
                      A                      A                      A
 Frequencies --   3177.8564              3180.6504              3737.9321
 Red. masses --      1.1035                 1.1046                 1.0656
 Frc consts  --      6.5660                 6.5841                 8.7724
 IR Inten    --      2.4325                 5.5944                12.4773

 - Thermochemistry -
 -------------------
 Temperature   298.150 Kelvin.  Pressure   1.00000 Atm.
 Atom     1 has atomic number  6 and mass  12.00000

 Molecular mass:   225.06709 amu.
 Principal axes and moments of inertia in atomic units:
                           1         2         3
     Eigenvalues --  1940.228813706.881994468.28413
           X            0.99968   0.02351  -0.00982
           Y           -0.02318   0.99921   0.03220
           Z            0.01057  -0.03196   0.99943
 This molecule is an asymmetric top.
 Rotational symmetry number  1.
 Warning -- assumption of classical behavior for rotation
           may cause significant error
 Rotational temperatures (Kelvin)      0.04464     0.02337     0.01938
 Rotational constants (GHZ):           0.93017     0.48686     0.40390
 Zero-point vibrational energy     633554.3 (Joules/Mol)
                                  151.42312 (Kcal/Mol)
 Warning -- explicit consideration of  23 degrees of freedom as
           vibrations may cause significant error
 Vibrational temperatures:     77.40   114.07   137.58   180.42   262.36
          (Kelvin)            311.25   348.68   377.27   395.02   407.60
                              442.93   459.96   512.28   550.91   566.69
                              609.77   634.89   646.39   687.65   714.69
                              749.96   805.15   839.98   914.17  1067.25
                             1100.01  1190.75  1241.62  1261.11  1271.50
                             1310.04  1341.64  1363.68  1378.22  1432.23
                             1502.83  1540.14  1594.31  1610.52  1627.74
                             1640.13  1659.24  1682.17  1700.87  1743.83
                             1786.84  1800.18  1873.28  1886.63  1916.15
                             1929.17  1956.89  1989.49  2009.46  2028.89
                             2047.23  2084.68  2089.11  2098.17  2149.22
                             2175.95  2180.84  2189.13  2198.15  2208.03
                             2222.55  4185.56  4301.29  4318.98  4341.79
                             4368.92  4448.29  4472.31  4491.17  4502.17
                             4518.83  4543.00  4552.45  4572.23  4576.25
                             5378.05

 Zero-point correction=                           0.241308 (Hartree/Particle)
 Thermal correction to Energy=                    0.254995
 Thermal correction to Enthalpy=                  0.255939
 Thermal correction to Gibbs Free Energy=         0.201628
 Sum of electronic and zero-point Energies=          -1104.560805
 Sum of electronic and thermal Energies=             -1104.547118
 Sum of electronic and thermal Enthalpies=           -1104.546174
 Sum of electronic and thermal Free Energies=        -1104.600484

                     E (Thermal)             CV                S
                      KCal/Mol        Cal/Mol-Kelvin    Cal/Mol-Kelvin
 Total                  160.012             53.932            114.306
 Electronic               0.000              0.000              0.000
 Translational            0.889              2.981             42.136
 Rotational               0.889              2.981             31.841
 Vibrational            158.234             47.970             40.329
 Vibration     1          0.596              1.976              4.673
 Vibration     2          0.600              1.963              3.909
 Vibration     3          0.603              1.952              3.542
 Vibration     4          0.610              1.928              3.015
 Vibration     5          0.630              1.864              2.304
 Vibration     6          0.645              1.816              1.990
 Vibration     7          0.659              1.775              1.786
 Vibration     8          0.670              1.742              1.647
 Vibration     9          0.677              1.720              1.567
 Vibration    10          0.682              1.705              1.514
 Vibration    11          0.698              1.659              1.374
 Vibration    12          0.706              1.636              1.312
 Vibration    13          0.732              1.563              1.139
 Vibration    14          0.752              1.507              1.028
 Vibration    15          0.761              1.483              0.985
 Vibration    16          0.786              1.418              0.879
 Vibration    17          0.801              1.380              0.823
 Vibration    18          0.808              1.363              0.798
 Vibration    19          0.834              1.299              0.716
 Vibration    20          0.852              1.257              0.666
 Vibration    21          0.876              1.203              0.607
 Vibration    22          0.915              1.119              0.525
 Vibration    23          0.941              1.066              0.478

 Optimization completed.
    -- Stationary point found.
 Normal termination of Gaussian 16 at Thu Dec 10 11:47:23 2020.

 ----------------------------------------------------------------------
 # B3LYP/6-311++G(d,p) empiricaldispersion=gd3bj scf=xqc pop=npa geom=c
 heck
 ----------------------------------------------------------------------

 --------------------------------------
 CID_10130749_JID_4922_Energie_neutraal
 --------------------------------------
 Structure from the checkpoint file:  "JID_4922.chk"
 Charge =  0 Multiplicity = 1

 SCF Done:  E(RB3LYP) =  -1105.05136843     A.U. after   14 cycles
 Normal termination of Gaussian 16 at Thu Dec 10 11:51:48 2020.

 ----------------------------------------------------------------------
 # B3LYP/6-311++G(d,p) empiricaldispersion=gd3bj scf=xqc pop=npa geom=c
 heck
 ----------------------------------------------------------------------

 ------------------------------------
 CID_10130749_JID_4922_Energie_kation
 ------------------------------------
 Structure from the checkpoint file:  "JID_4922.chk"
 Charge =  1 Multiplicity = 2

 SCF Done:  E(UB3LYP) =  -1104.70402164     A.U. after   27 cycles
 Normal termination of Gaussian 16 at Thu Dec 10 12:03:51 2020.
 Gaussian 16:  ES64L-G16RevA.03 25-Dec-2016

 ----------------------------------------------------------------------
 # B3LYP/6-311++G(d,p) empiricaldispersion=gd3bj scf=xqc pop=npa geom=c
 heck
 ----------------------------------------------------------------------

 -----------------------------------
 CID_10130749_JID_4922_Energie_anion
 -----------------------------------
 Structure from the checkpoint file:  "JID_4922.chk"
 Charge = -1 Multiplicity = 2

                         Standard orientation:
 ---------------------------------------------------------------------
 Center     Atomic      Atomic             Coordinates (Angstroms)
 Number     Number       Type             X           Y           Z
 ---------------------------------------------------------------------
      1          6           0        0.406204    2.337379    0.909174
      2          6           0        0.145889    1.428840   -0.293173
      3          6           0        1.482865    0.796367   -0.776935
      4         16           0        2.060418   -0.715001    0.093030
      5          8           0        1.641321   -1.854344   -0.728980
      6          8           0        3.455159   -0.544773    0.472172
      7          8           0        1.185368   -0.692873    1.449768
      8          7           0       -0.825717    0.352343    0.037075
      9          6           0       -2.052140    0.810460    0.723053
     10          6           0       -2.901854   -0.398499    1.108969
     11          8           0       -3.245197   -1.189772   -0.013714
     12          6           0       -2.074405   -1.638242   -0.676838
     13          6           0       -1.215712   -0.465484   -1.134971
     14          8           0       -0.326005    2.303137   -1.310126
     15          1           0        0.700001    1.757611    1.786264
     16          1           0       -0.476154    2.937806    1.135661
     17          1           0        1.214803    3.026351    0.655884
     18          1           0        1.425264    0.491580   -1.824602
     19          1           0        2.281656    1.531606   -0.678024
     20          1           0        0.241895   -0.502822    1.118703
     21          1           0       -2.625291    1.489383    0.075452
     22          1           0       -1.781536    1.345834    1.634694
     23          1           0       -2.354008   -1.006196    1.849032
     24          1           0       -3.840836   -0.066035    1.559857
     25          1           0       -2.404531   -2.223003   -1.539047
     26          1           0       -1.477575   -2.288529   -0.017940
     27          1           0       -1.794780    0.139958   -1.850046
     28          1           0       -0.324181   -0.861481   -1.622517
     29          1           0       -0.401650    1.805617   -2.139999
 ---------------------------------------------------------------------

 SCF Done:  E(UB3LYP) =  -1105.04660031     A.U. after   27 cycles

 The electronic state is 2-A.
 Alpha  occ. eigenvalues --  -88.98331 -19.06703 -19.04201 -19.04033 -19.03116
 Alpha  occ. eigenvalues --  -19.02827 -14.24924 -10.19244 -10.13344 -10.13192
 Alpha  occ. eigenvalues --  -10.12298 -10.11206 -10.10926 -10.07663  -8.04411
 Alpha  occ. eigenvalues --   -6.00780  -6.00607  -6.00471  -1.05367  -0.96313
 Alpha  occ. eigenvalues --   -0.95545  -0.94142  -0.92316  -0.84366  -0.71265
 Alpha  occ. eigenvalues --   -0.69332  -0.64982  -0.61196  -0.57220  -0.54907
 Alpha  occ. eigenvalues --   -0.51686  -0.49373  -0.46066  -0.45361  -0.41337
 Alpha  occ. eigenvalues --   -0.40758  -0.40026  -0.39524  -0.38525  -0.37868
 Alpha  occ. eigenvalues --   -0.37379  -0.35571  -0.34020  -0.33271  -0.31540
 Alpha  occ. eigenvalues --   -0.31020  -0.30700  -0.29131  -0.28631  -0.27784
 Alpha  occ. eigenvalues --   -0.27052  -0.26342  -0.25505  -0.24416  -0.23095
 Alpha  occ. eigenvalues --   -0.22275  -0.21155  -0.20442  -0.18540  -0.16783
 Alpha  occ. eigenvalues --    0.03995
 Alpha virt. eigenvalues --    0.06314   0.07621   0.08310   0.08983   0.09331
 Alpha virt. eigenvalues --    0.10184   0.10939   0.11208   0.12144   0.12644
 Alpha virt. eigenvalues --    0.12801   0.12890   0.13905   0.14092   0.14768

  Beta  occ. eigenvalues --  -88.98323 -19.06684 -19.04195 -19.03967 -19.03108
  Beta  occ. eigenvalues --  -19.02820 -14.24919 -10.19234 -10.13324 -10.13184
  Beta  occ. eigenvalues --  -10.12257 -10.11179 -10.10886 -10.07629  -8.04400
  Beta  occ. eigenvalues --   -6.00770  -6.00600  -6.00461  -1.05333  -0.96276
  Beta  occ. eigenvalues --   -0.95446  -0.94102  -0.92294  -0.84323  -0.71209
  Beta  occ. eigenvalues --   -0.69291  -0.64913  -0.61159  -0.57160  -0.54863
  Beta  occ. eigenvalues --   -0.51607  -0.49306  -0.46009  -0.45288  -0.41277
  Beta  occ. eigenvalues --   -0.40734  -0.39990  -0.39493  -0.38487  -0.37843
  Beta  occ. eigenvalues --   -0.37345  -0.35525  -0.33979  -0.33249  -0.31492
  Beta  occ. eigenvalues --   -0.30976  -0.30656  -0.29089  -0.28583  -0.27733
  Beta  occ. eigenvalues --   -0.27019  -0.26320  -0.25466  -0.24377  -0.23080
  Beta  occ. eigenvalues --   -0.22252  -0.21137  -0.20391  -0.18496  -0.16738
  Beta virt. eigenvalues --    0.06662   0.07836   0.08137   0.08713   0.09604
  Beta virt. eigenvalues --    0.09877   0.10756   0.11230   0.11572   0.12509
  Beta virt. eigenvalues --    0.12860   0.13053   0.13289   0.14040   0.14525

 Mulliken charges and spin densities:
               1          2
     1  C    1.404664  -1.824825
     2  C   -2.093435   1.522526
     3  C    0.517166  -1.007277
     4  S    0.343254  -0.116903
     5  O   -0.228060   0.016052
     6  O   -0.079504   0.004040
     7  O   -0.305897  -0.009214
     8  N   -0.190694   0.016074
     9  C   -0.031953  -0.093458
    10  C    0.483173  -0.946213
    11  O   -0.153133   0.048602
    12  C   -0.323925  -0.306485
    13  C    0.778330  -0.743508
    14  O    0.017076  -0.088949
    15  H   -0.084468   0.272484
    16  H   -0.267954   0.473017
    17  H   -0.017959   0.186356
    18  H   -0.296995   0.603066
    19  H    0.029113   0.217199
    20  H    0.552073  -0.049249
    21  H    0.055499   0.166701
    22  H   -0.372921   0.527134
    23  H    0.057625   0.087013
    24  H   -0.269252   0.467993
    25  H   -0.007015   0.200185
    26  H    0.128886   0.027113
    27  H   -0.382713   0.589591
    28  H    0.198842   0.000079
    29  H   -0.459824   0.760857
 Sum of Mulliken charges =  -1.00000   1.00000

 Dipole moment (field-independent basis, Debye):
    X=              0.3454    Y=             -2.7102    Z=              2.5491  Tot=              3.7367
 Quadrupole moment (field-independent basis, Debye-Ang):
   XX=           -149.8009   YY=           -133.6195   ZZ=           -139.0940
   XY=              9.3144   XZ=             -1.1438   YZ=              2.6826

 Summary of Natural Population Analysis:

                                       Natural Population
                Natural  -----------------------------------------------
    Atom  No    Charge         Core      Valence    Rydberg      Total
 -----------------------------------------------------------------------
      C    1   -0.29891      0.99959     2.29166    0.00766     3.29891
      C    2    0.22856      0.99955     1.75162    0.02027     2.77144
      C    3   -0.30866      0.99949     2.29344    0.01573     3.30866
      S    4    1.12758      4.99938     1.77014    0.10290     6.87242
      O    5   -0.46285      0.99990     3.45724    0.00571     4.46285
      O    6   -0.45321      0.99990     3.44780    0.00551     4.45321
      O    7   -0.45227      0.99990     3.44665    0.00572     4.45227
      N    8   -0.31794      0.99971     2.80149    0.01674     3.81794
      C    9   -0.10137      0.99959     2.09037    0.01141     3.10137
      C   10   -0.01286      0.99958     1.99996    0.01332     3.01286
      O   11   -0.29538      0.99989     3.28682    0.00868     4.29538
      C   12   -0.01168      0.99957     1.99995    0.01216     3.01168
      C   13   -0.11319      0.99959     2.10062    0.01298     3.11319
      O   14   -0.37383      0.99988     3.36649    0.00747     4.37383
      H   15    0.11086      0.00000     0.38796    0.00117     0.38914
      H   16    0.11122      0.00000     0.38765    0.00114     0.38878
      H   17    0.10851      0.00000     0.39053    0.00096     0.39149
      H   18    0.12573      0.00000     0.37224    0.00203     0.37427
      H   19    0.12490      0.00000     0.37415    0.00095     0.37510
      H   20    0.25203      0.00000     0.24268    0.00529     0.24797
      H   21    0.09929      0.00000     0.39904    0.00167     0.40071
      H   22    0.10669      0.00000     0.39135    0.00197     0.39331
      H   23    0.07771      0.00000     0.42083    0.00145     0.42229
      H   24    0.09658      0.00000     0.40210    0.00132     0.40342
      H   25    0.09562      0.00000     0.40336    0.00102     0.40438
      H   26    0.08233      0.00000     0.41630    0.00137     0.41767
      H   27    0.09590      0.00000     0.40167    0.00243     0.40410
      H   28    0.11479      0.00000     0.38333    0.00189     0.38521
      H   29    0.24387      0.00000     0.23776    0.01837     0.25613
 =======================================================================
   * Total *   -0.00000     17.99552    41.71518    0.28930    60.00000

 Normal termination of Gaussian 16 at Thu Dec 10 12:16:00 2020.
