 Gaussian 16, Revision A.03,

 -----------------------------------------------------------
 # opt freq B3LYP/6-31G(d) empiricaldispersion=gd3bj scf=xqc
 -----------------------------------------------------------

 ------------------------------
 CID_139649661_JID_296_neutraal
 ------------------------------
 Symbolic Z-matrix:
 Charge =  0 Multiplicity = 1

 SCF Done:  E(RB3LYP) =  -748.379706500     A.U. after   14 cycles
 SCF Done:  E(RB3LYP) =  -748.381578168     A.U. after   11 cycles
 SCF Done:  E(RB3LYP) =  -748.381752005     A.U. after   11 cycles
 SCF Done:  E(RB3LYP) =  -748.381764904     A.U. after   10 cycles
 SCF Done:  E(RB3LYP) =  -748.381792790     A.U. after    9 cycles
 SCF Done:  E(RB3LYP) =  -748.381794142     A.U. after    8 cycles
 SCF Done:  E(RB3LYP) =  -748.381794534     A.U. after    8 cycles
 SCF Done:  E(RB3LYP) =  -748.381794729     A.U. after    8 cycles
 SCF Done:  E(RB3LYP) =  -748.381796050     A.U. after    9 cycles
 SCF Done:  E(RB3LYP) =  -748.379365072     A.U. after   12 cycles
 SCF Done:  E(RB3LYP) =  -748.383362172     A.U. after   11 cycles
 SCF Done:  E(RB3LYP) =  -748.383364995     A.U. after    9 cycles
 SCF Done:  E(RB3LYP) =  -748.383365462     A.U. after    8 cycles
 SCF Done:  E(RB3LYP) =  -748.383365533     A.U. after    7 cycles
 Optimization completed.
    -- Stationary point found.

 1\1\GINC-NODE107\FOpt\RB3LYP\6-31G(d)\C9H12S1\VSC10255\08-Dec-2020\0\\
 # opt freq B3LYP/6-31G(d) empiricaldispersion=gd3bj scf=xqc\\CID_13964
 9661_JID_296_neutraal\\0,1\C,1.1136773895,0.3799811808,-0.2096151119\C
 ,0.4218503321,0.0954006294,1.1335490013\C,0.7442452013,1.118331142,2.1
 922161085\C,1.6067782845,0.8886056892,3.229992589\S,1.7962774514,2.275
 419349,4.256410691\C,0.6944460384,3.1874166701,3.2760356432\C,0.213838
 8257,2.4620921894,2.2192273282\C,-0.7548542476,3.0150892656,1.19546718
 56\C,-1.6156399962,4.1262439716,1.7315200907\C,-1.6082427159,5.3793872

 Normal termination of Gaussian 16 at Tue Dec  8 11:09:02 2020.

 --------------------------------------------------------------------
 #N Geom=AllCheck Guess=TCheck SCRF=Check GenChk RB3LYP/6-31G(d) Freq
 --------------------------------------------------------------------

 Structure from the checkpoint file:  "JID_296.chk"
 ------------------------------
 CID_139649661_JID_296_neutraal
 ------------------------------
 Charge =  0 Multiplicity = 1

 SCF Done:  E(RB3LYP) =  -748.383365533     A.U. after    1 cycles

  Exact polarizability: 130.102   0.074 116.901  -8.774   2.801  70.972
 Approx polarizability: 189.110   3.438 182.566 -17.912  11.210 111.256

                      1                      2                      3
                      A                      A                      A
 Frequencies --     52.1563                73.7918                78.8553
 Red. masses --      2.6464                 3.1206                 2.5574
 Frc consts  --      0.0042                 0.0100                 0.0094
 IR Inten    --      0.1015                 0.0081                 0.0105

                      4                      5                      6
                      A                      A                      A
 Frequencies --    144.0903               163.0054               204.3789
 Red. masses --      3.5531                 2.4048                 1.3883
 Frc consts  --      0.0435                 0.0376                 0.0342
 IR Inten    --      0.1590                 0.2001                 0.3357

                      7                      8                      9
                      A                      A                      A
 Frequencies --    248.7209               291.7571               357.4346
 Red. masses --      2.4531                 2.1584                 4.2177
 Frc consts  --      0.0894                 0.1082                 0.3175
 IR Inten    --      0.8981                 0.3120                 2.6350

                     10                     11                     12
                      A                      A                      A
 Frequencies --    407.5447               423.8999               491.8599
 Red. masses --      2.2381                 2.8179                 3.7882
 Frc consts  --      0.2190                 0.2983                 0.5400
 IR Inten    --      0.3625                 2.2816                 2.8403

                     13                     14                     15
                      A                      A                      A
 Frequencies --    542.4631               568.6846               672.9806
 Red. masses --      2.8532                 3.6673                 2.1903
 Frc consts  --      0.4947                 0.6988                 0.5845
 IR Inten    --      1.4021                 2.3260                 5.1411

                     16                     17                     18
                      A                      A                      A
 Frequencies --    684.2337               724.6331               787.8828
 Red. masses --      1.8137                 2.0439                 1.4439
 Frc consts  --      0.5003                 0.6323                 0.5281
 IR Inten    --      1.7664                 0.2194                 1.8024

                     19                     20                     21
                      A                      A                      A
 Frequencies --    812.4631               818.8229               866.8147
 Red. masses --      1.2393                 2.1826                 4.3794
 Frc consts  --      0.4820                 0.8622                 1.9387
 IR Inten    --     47.0082                 0.6261                12.0949

                     22                     23                     24
                      A                      A                      A
 Frequencies --    878.3039               933.7205               941.9327
 Red. masses --      3.5690                 1.4384                 1.3623
 Frc consts  --      1.6221                 0.7389                 0.7121
 IR Inten    --     23.1957                 4.9103                33.4730

                     25                     26                     27
                      A                      A                      A
 Frequencies --    961.4405               975.7440              1037.1950
 Red. masses --      2.5227                 2.1481                 1.1037
 Frc consts  --      1.3739                 1.2049                 0.6995
 IR Inten    --      1.2381                 2.8331                12.2289

                     28                     29                     30
                      A                      A                      A
 Frequencies --   1081.0563              1098.7805              1131.7765
 Red. masses --      1.9263                 1.5740                 2.3787
 Frc consts  --      1.3264                 1.1196                 1.7952
 IR Inten    --      9.4551                 0.7268                 2.7756

                     31                     32                     33
                      A                      A                      A
 Frequencies --   1141.6689              1207.4673              1213.2715
 Red. masses --      1.7095                 1.4222                 1.4488
 Frc consts  --      1.3128                 1.2217                 1.2565
 IR Inten    --      0.7663                 0.5347                 2.8892

                     34                     35                     36
                      A                      A                      A
 Frequencies --   1265.8891              1294.8967              1329.4283
 Red. masses --      1.2663                 1.3103                 1.3149
 Frc consts  --      1.1956                 1.2945                 1.3692
 IR Inten    --      2.0256                 6.1633                 5.2952

                     37                     38                     39
                      A                      A                      A
 Frequencies --   1346.3688              1372.2666              1433.4118
 Red. masses --      1.4296                 1.4462                 1.6470
 Frc consts  --      1.5269                 1.6045                 1.9939
 IR Inten    --      3.6190                 6.7543                 1.7495

                     40                     41                     42
                      A                      A                      A
 Frequencies --   1442.1091              1473.4132              1495.1625
 Red. masses --      1.9550                 1.1999                 2.0103
 Frc consts  --      2.3955                 1.5348                 2.6478
 IR Inten    --      3.8778                 1.0918                 1.5415

                     43                     44                     45
                      A                      A                      A
 Frequencies --   1514.1670              1517.1516              1527.5105
 Red. masses --      1.6812                 1.0690                 1.0424
 Frc consts  --      2.2710                 1.4498                 1.4330
 IR Inten    --      6.3967                 2.7439                 4.5384

                     46                     47                     48
                      A                      A                      A
 Frequencies --   1538.3555              1611.7544              1735.2214
 Red. masses --      1.0967                 6.8347                 4.5222
 Frc consts  --      1.5291                10.4608                 8.0225
 IR Inten    --      2.8734                 0.0941                10.0560

                     49                     50                     51
                      A                      A                      A
 Frequencies --   3022.2745              3036.3118              3052.1486
 Red. masses --      1.0592                 1.0648                 1.0749
 Frc consts  --      5.7003                 5.7837                 5.8996
 IR Inten    --     25.5801                30.0972                11.3425

                     52                     53                     54
                      A                      A                      A
 Frequencies --   3054.0414              3079.6039              3121.3335
 Red. masses --      1.0593                 1.0981                 1.1023
 Frc consts  --      5.8211                 6.1362                 6.3273
 IR Inten    --     40.2057                15.6815                42.7009

                     55                     56                     57
                      A                      A                      A
 Frequencies --   3128.6525              3151.6359              3160.5477
 Red. masses --      1.1030                 1.0694                 1.0807
 Frc consts  --      6.3610                 6.2585                 6.3604
 IR Inten    --     38.6497                18.6951                 4.5488

                     58                     59                     60
                      A                      A                      A
 Frequencies --   3237.5049              3259.1344              3272.5960
 Red. masses --      1.1157                 1.0935                 1.0934
 Frc consts  --      6.8897                 6.8437                 6.8996
 IR Inten    --     20.0585                 1.5999                 0.3957

 - Thermochemistry -
 -------------------
 Temperature   298.150 Kelvin.  Pressure   1.00000 Atm.
 Atom     1 has atomic number  6 and mass  12.00000

 Molecular mass:   152.06597 amu.
 Principal axes and moments of inertia in atomic units:
                           1         2         3
     Eigenvalues --  1383.277061988.592883170.16335
           X            0.99548  -0.09491  -0.00331
           Y            0.09487   0.99543  -0.01056
           Z            0.00430   0.01020   0.99994
 This molecule is an asymmetric top.
 Rotational symmetry number  1.
 Warning -- assumption of classical behavior for rotation
           may cause significant error
 Rotational temperatures (Kelvin)      0.06262     0.04356     0.02732
 Rotational constants (GHZ):           1.30469     0.90755     0.56929
 Zero-point vibrational energy     487428.7 (Joules/Mol)
                                  116.49827 (Kcal/Mol)
 Warning -- explicit consideration of  14 degrees of freedom as
           vibrations may cause significant error
 Vibrational temperatures:     75.04   106.17   113.46   207.31   234.53
          (Kelvin)            294.06   357.85   419.77   514.27   586.37
                              609.90   707.68   780.48   818.21   968.27
                              984.46  1042.59  1133.59  1168.95  1178.10
                             1247.15  1263.68  1343.42  1355.23  1383.30
                             1403.88  1492.29  1555.40  1580.90  1628.37
                             1642.61  1737.28  1745.63  1821.33  1863.07
                             1912.75  1937.12  1974.39  2062.36  2074.87
                             2119.91  2151.21  2178.55  2182.84  2197.75
                             2213.35  2318.96  2496.60  4348.38  4368.58
                             4391.36  4394.08  4430.86  4490.90  4501.43
                             4534.50  4547.32  4658.05  4689.17  4708.54

 Zero-point correction=                           0.185652 (Hartree/Particle)
 Thermal correction to Energy=                    0.196299
 Thermal correction to Enthalpy=                  0.197243
 Thermal correction to Gibbs Free Energy=         0.148581
 Sum of electronic and zero-point Energies=           -748.197714
 Sum of electronic and thermal Energies=              -748.187067
 Sum of electronic and thermal Enthalpies=            -748.186123
 Sum of electronic and thermal Free Energies=         -748.234784

                     E (Thermal)             CV                S
                      KCal/Mol        Cal/Mol-Kelvin    Cal/Mol-Kelvin
 Total                  123.179             39.368            102.416
 Electronic               0.000              0.000              0.000
 Translational            0.889              2.981             40.967
 Rotational               0.889              2.981             30.545
 Vibrational            121.402             33.406             30.904
 Vibration     1          0.596              1.977              4.734
 Vibration     2          0.599              1.966              4.050
 Vibration     3          0.600              1.963              3.919
 Vibration     4          0.616              1.909              2.749
 Vibration     5          0.623              1.888              2.515
 Vibration     6          0.640              1.834              2.093
 Vibration     7          0.662              1.765              1.740
 Vibration     8          0.687              1.689              1.464
 Vibration     9          0.733              1.560              1.133
 Vibration    10          0.772              1.454              0.935
 Vibration    11          0.786              1.418              0.879
 Vibration    12          0.848              1.268              0.679
 Vibration    13          0.898              1.156              0.560
 Vibration    14          0.925              1.099              0.507

 Optimization completed.
    -- Stationary point found.

 1\1\GINC-NODE107\Freq\RB3LYP\6-31G(d)\C9H12S1\VSC10255\08-Dec-2020\0\\
 #N Geom=AllCheck Guess=TCheck SCRF=Check GenChk RB3LYP/6-31G(d) Freq\\
 CID_139649661_JID_296_neutraal\\0,1\C,1.1136773895,0.3799811808,-0.209
 6151119\C,0.4218503321,0.0954006294,1.1335490013\C,0.7442452013,1.1183
 31142,2.1922161085\C,1.6067782845,0.8886056892,3.229992589\S,1.7962774
 514,2.275419349,4.256410691\C,0.6944460384,3.1874166701,3.2760356432\C
 ,0.2138388257,2.4620921894,2.2192273282\C,-0.7548542476,3.0150892656,1
 .1954671856\C,-1.6156399962,4.1262439716,1.7315200907\C,-1.6082427159,

 Normal termination of Gaussian 16 at Tue Dec  8 11:13:32 2020.

 ----------------------------------------------------------------------
 # B3LYP/6-311++G(d,p) empiricaldispersion=gd3bj scf=xqc pop=npa geom=c
 heck
 ----------------------------------------------------------------------

 --------------------------------------
 CID_139649661_JID_296_Energie_neutraal
 --------------------------------------
 Structure from the checkpoint file:  "JID_296.chk"
 Charge =  0 Multiplicity = 1

 SCF Done:  E(RB3LYP) =  -748.505076325     A.U. after   15 cycles
 Normal termination of Gaussian 16 at Tue Dec  8 11:16:06 2020.

 ----------------------------------------------------------------------
 # B3LYP/6-311++G(d,p) empiricaldispersion=gd3bj scf=xqc pop=npa geom=c
 heck
 ----------------------------------------------------------------------

 ------------------------------------
 CID_139649661_JID_296_Energie_kation
 ------------------------------------
 Structure from the checkpoint file:  "JID_296.chk"
 Charge =  1 Multiplicity = 2

 SCF Done:  E(UB3LYP) =  -748.193761613     A.U. after   33 cycles
 SCF Done:  E(UB3LYP) =  -748.201167390     a.u. after   17 cycles
 Normal termination of Gaussian 16 at Tue Dec  8 12:07:27 2020.
 Gaussian 16:  ES64L-G16RevA.03 25-Dec-2016

 -----------------------------------
 CID_139649661_JID_296_Energie_anion
 -----------------------------------
 Structure from the checkpoint file:  "JID_296.chk"
 Charge = -1 Multiplicity = 2

                         Standard orientation:
 ---------------------------------------------------------------------
 Center     Atomic      Atomic             Coordinates (Angstroms)
 Number     Number       Type             X           Y           Z
 ---------------------------------------------------------------------
      1          6           0       -1.453728    2.679053   -0.679496
      2          6           0       -1.524654    1.780176    0.565771
      3          6           0       -1.110987    0.357284    0.291253
      4          6           0       -1.995785   -0.681593    0.183628
      5         16           0       -1.211800   -2.188217   -0.174349
      6          6           0        0.339194   -1.412786   -0.180005
      7          6           0        0.252195   -0.070939    0.076509
      8          6           0        1.450893    0.852941    0.119224
      9          6           0        2.729276    0.150875    0.487746
     10          6           0        3.795647    0.048287   -0.304719
     11          1           0       -0.435838    2.725681   -1.080653
     12          1           0       -1.769608    3.701363   -0.442976
     13          1           0       -2.104548    2.291539   -1.470390
     14          1           0       -0.891987    2.206600    1.356179
     15          1           0       -2.548049    1.786039    0.958310
     16          1           0       -3.070724   -0.643880    0.301335
     17          1           0        1.236595   -1.983827   -0.373041
     18          1           0        1.576517    1.353474   -0.850832
     19          1           0        1.255211    1.652478    0.848084
     20          1           0        2.743861   -0.313024    1.474189
     21          1           0        4.695733   -0.472547    0.009990
     22          1           0        3.809335    0.487789   -1.300070
 ---------------------------------------------------------------------

 SCF Done:  E(UB3LYP) =  -748.486692663     A.U. after   33 cycles
 SCF Done:  E(UB3LYP) =  -748.486692663     a.u. after    1 cycles

 The electronic state is 2-A.
 Alpha  occ. eigenvalues --  -88.77487 -10.09349 -10.09174 -10.08342 -10.08073
 Alpha  occ. eigenvalues --  -10.08028 -10.07935 -10.06932 -10.06670 -10.05392
 Alpha  occ. eigenvalues --   -7.86109  -5.82390  -5.82035  -5.81717  -0.78383
 Alpha  occ. eigenvalues --   -0.70562  -0.68269  -0.64013  -0.60898  -0.57335
 Alpha  occ. eigenvalues --   -0.51771  -0.48009  -0.45531  -0.42202  -0.39104
 Alpha  occ. eigenvalues --   -0.36511  -0.34850  -0.33460  -0.31786  -0.31185
 Alpha  occ. eigenvalues --   -0.29738  -0.28647  -0.26880  -0.25956  -0.25837
 Alpha  occ. eigenvalues --   -0.25072  -0.23511  -0.23253  -0.17017  -0.14263
 Alpha  occ. eigenvalues --   -0.13436   0.04816
 Alpha virt. eigenvalues --    0.06382   0.07578   0.07825   0.08581   0.08751
 Alpha virt. eigenvalues --    0.09285   0.09679   0.09951   0.10835   0.11624
 Alpha virt. eigenvalues --    0.12089   0.12558   0.13268   0.13994   0.14170

  Beta  occ. eigenvalues --  -88.77485 -10.09345 -10.09144 -10.08340 -10.08051
  Beta  occ. eigenvalues --  -10.08015 -10.07934 -10.06901 -10.06637 -10.05350
  Beta  occ. eigenvalues --   -7.86107  -5.82389  -5.82030  -5.81714  -0.78365
  Beta  occ. eigenvalues --   -0.70528  -0.68228  -0.63979  -0.60857  -0.57288
  Beta  occ. eigenvalues --   -0.51676  -0.47960  -0.45467  -0.42162  -0.39066
  Beta  occ. eigenvalues --   -0.36453  -0.34809  -0.33415  -0.31735  -0.31150
  Beta  occ. eigenvalues --   -0.29706  -0.28603  -0.26832  -0.25927  -0.25789
  Beta  occ. eigenvalues --   -0.25027  -0.23471  -0.23215  -0.16973  -0.14241
  Beta  occ. eigenvalues --   -0.13386
  Beta virt. eigenvalues --    0.07102   0.07573   0.08005   0.08388   0.08936
  Beta virt. eigenvalues --    0.09156   0.09659   0.10102   0.10462   0.11380
  Beta virt. eigenvalues --    0.12078   0.12520   0.12938   0.13453   0.14031

 Mulliken charges and spin densities:
               1          2
     1  C    1.562834  -2.182402
     2  C    0.284522  -0.736705
     3  C   -0.923300   0.830885
     4  C    0.733058  -0.519477
     5  S    0.085579  -0.621494
     6  C    0.505304  -0.241434
     7  C   -1.406632   1.728804
     8  C    2.448909  -3.369597
     9  C   -1.810938   2.221447
    10  C    0.969162  -1.575082
    11  H   -0.413998   0.558724
    12  H   -0.533376   0.675174
    13  H   -0.077067   0.206828
    14  H   -0.243907   0.384759
    15  H   -0.503965   0.667261
    16  H   -0.689166   0.967919
    17  H    0.068286   0.212662
    18  H    0.028624   0.108682
    19  H    0.103927   0.060790
    20  H   -0.345669   0.516848
    21  H   -0.432631   0.572923
    22  H   -0.409554   0.532484
 Sum of Mulliken charges =  -1.00000   1.00000

 Dipole moment (field-independent basis, Debye):
    X=             -0.2855    Y=             -5.6606    Z=             -0.4970  Tot=              5.6896
 Quadrupole moment (field-independent basis, Debye-Ang):
   XX=           -143.7427   YY=           -119.6226   ZZ=            -97.7812
   XY=              9.9628   XZ=              3.0818   YZ=              0.5008

 Summary of Natural Population Analysis:

                                       Natural Population
                Natural  -----------------------------------------------
    Atom  No    Charge         Core      Valence    Rydberg      Total
 -----------------------------------------------------------------------
      C    1   -0.27925      0.99966     2.27437    0.00523     3.27925
      C    2   -0.19799      0.99960     2.18841    0.00997     3.19799
      C    3   -0.03452      0.99944     2.02284    0.01224     3.03452
      C    4   -0.18666      0.99945     2.17553    0.01168     3.18666
      S    5    0.19046      4.99946     2.78822    0.02186     7.80954
      C    6   -0.19400      0.99945     2.18507    0.00948     3.19400
      C    7   -0.03434      0.99943     2.02264    0.01226     3.03434
      C    8   -0.21618      0.99957     2.20639    0.01023     3.21618
      C    9   -0.08063      0.99957     2.06907    0.01198     3.08063
      C   10   -0.19115      0.99955     2.18426    0.00734     3.19115
      H   11    0.09608      0.00000     0.40233    0.00159     0.40392
      H   12    0.10129      0.00000     0.39651    0.00220     0.39871
      H   13    0.09694      0.00000     0.40168    0.00138     0.40306
      H   14    0.10192      0.00000     0.39603    0.00205     0.39808
      H   15    0.10415      0.00000     0.39358    0.00227     0.39585
      H   16    0.11126      0.00000     0.38730    0.00144     0.38874
      H   17    0.11364      0.00000     0.38531    0.00105     0.38636
      H   18    0.10776      0.00000     0.39065    0.00159     0.39224
      H   19    0.11131      0.00000     0.38682    0.00187     0.38869
      H   20    0.09370      0.00000     0.40506    0.00124     0.40630
      H   21    0.09515      0.00000     0.40325    0.00161     0.40485
      H   22    0.09106      0.00000     0.40743    0.00150     0.40894
 =======================================================================
   * Total *   -0.00000     13.99519    26.87275    0.13206    41.00000

 Normal termination of Gaussian 16 at Tue Dec  8 12:14:08 2020.
