 Gaussian 16, Revision A.03,

 -----------------------------------------------------------
 # opt freq B3LYP/6-31G(d) empiricaldispersion=gd3bj scf=xqc
 -----------------------------------------------------------

 -------------------------------
 CID_63101912_JID_10848_neutraal
 -------------------------------
 Symbolic Z-matrix:
 Charge =  0 Multiplicity = 1

 SCF Done:  E(RB3LYP) =  -860.606828501     A.U. after   16 cycles
 SCF Done:  E(RB3LYP) =  -860.612582522     A.U. after   13 cycles
 SCF Done:  E(RB3LYP) =  -860.613659230     A.U. after   13 cycles
 SCF Done:  E(RB3LYP) =  -860.614615012     A.U. after   13 cycles
 SCF Done:  E(RB3LYP) =  -860.614863986     A.U. after   12 cycles
 SCF Done:  E(RB3LYP) =  -860.614992570     A.U. after   12 cycles
 SCF Done:  E(RB3LYP) =  -860.615032524     A.U. after   11 cycles
 SCF Done:  E(RB3LYP) =  -860.615066259     A.U. after   11 cycles
 SCF Done:  E(RB3LYP) =  -860.615080025     A.U. after   10 cycles
 SCF Done:  E(RB3LYP) =  -860.615085485     A.U. after   10 cycles
 SCF Done:  E(RB3LYP) =  -860.615087548     A.U. after   10 cycles
 SCF Done:  E(RB3LYP) =  -860.615088387     A.U. after   10 cycles
 SCF Done:  E(RB3LYP) =  -860.615089146     A.U. after   10 cycles
 SCF Done:  E(RB3LYP) =  -860.615089280     A.U. after    7 cycles
 SCF Done:  E(RB3LYP) =  -860.615089401     A.U. after    8 cycles
 SCF Done:  E(RB3LYP) =  -860.615089437     A.U. after    6 cycles
 Optimization completed.
    -- Stationary point found.
 Normal termination of Gaussian 16 at Mon Dec 14 19:03:41 2020.

 --------------------------------------------------------------------
 #N Geom=AllCheck Guess=TCheck SCRF=Check GenChk RB3LYP/6-31G(d) Freq
 --------------------------------------------------------------------

 Structure from the checkpoint file:  "JID_10848.chk"
 -------------------------------
 CID_63101912_JID_10848_neutraal
 -------------------------------
 Charge =  0 Multiplicity = 1

 SCF Done:  E(RB3LYP) =  -860.615089437     A.U. after    1 cycles

  Exact polarizability: 210.529 -18.328 178.128 -29.470 -15.066 155.577
 Approx polarizability: 283.418 -29.771 277.111 -66.088 -30.861 266.602

                      1                      2                      3
                      A                      A                      A
 Frequencies --     10.9672                29.5069                37.3990
 Red. masses --      5.0940                 5.9014                 5.0149
 Frc consts  --      0.0004                 0.0030                 0.0041
 IR Inten    --      0.1194                 2.1700                 0.2198

                      4                      5                      6
                      A                      A                      A
 Frequencies --     59.2506                64.8867                81.1151
 Red. masses --      3.1729                 7.4928                 3.8843
 Frc consts  --      0.0066                 0.0186                 0.0151
 IR Inten    --      0.1392                 2.1393                 0.8353

                      7                      8                      9
                      A                      A                      A
 Frequencies --     98.8418               114.0032               131.6873
 Red. masses --      2.6822                 3.2897                 3.7403
 Frc consts  --      0.0154                 0.0252                 0.0382
 IR Inten    --      0.0963                 0.1033                 2.7846

                     10                     11                     12
                      A                      A                      A
 Frequencies --    148.1649               161.2482               190.3258
 Red. masses --      6.8012                 5.4526                 3.9383
 Frc consts  --      0.0880                 0.0835                 0.0841
 IR Inten    --      2.3133                 3.6648                 0.4263

                     13                     14                     15
                      A                      A                      A
 Frequencies --    205.4486               255.9290               293.8189
 Red. masses --      3.0955                 3.5514                 3.1994
 Frc consts  --      0.0770                 0.1371                 0.1627
 IR Inten    --      1.3681                 1.7612                 1.4172

                     16                     17                     18
                      A                      A                      A
 Frequencies --    308.7842               352.6634               369.4298
 Red. masses --      3.8140                 2.9984                 3.0374
 Frc consts  --      0.2143                 0.2197                 0.2442
 IR Inten    --      1.4465                 3.2471                 1.7847

                     19                     20                     21
                      A                      A                      A
 Frequencies --    385.9001               401.5249               417.2593
 Red. masses --      7.4751                 4.8705                 2.3615
 Frc consts  --      0.6559                 0.4626                 0.2422
 IR Inten    --     10.4565                 2.0727                 0.1176

                     22                     23                     24
                      A                      A                      A
 Frequencies --    457.1727               467.2156               469.9560
 Red. masses --      2.7384                 5.7322                 3.4851
 Frc consts  --      0.3372                 0.7372                 0.4535
 IR Inten    --     34.0927                 3.0348                 0.7456

                     25                     26                     27
                      A                      A                      A
 Frequencies --    513.5633               522.1997               575.9999
 Red. masses --      3.3145                 2.0097                 5.2742
 Frc consts  --      0.5151                 0.3229                 1.0310
 IR Inten    --     31.2033                11.9997                14.4482

                     28                     29                     30
                      A                      A                      A
 Frequencies --    587.0550               617.2621               665.4087
 Red. masses --      1.9284                 4.7138                 5.9905
 Frc consts  --      0.3916                 1.0582                 1.5628
 IR Inten    --     68.5681                11.7704                 1.4879

                     31                     32                     33
                      A                      A                      A
 Frequencies --    700.6209               728.6772               746.2613
 Red. masses --      2.8915                 2.6432                 1.9913
 Frc consts  --      0.8363                 0.8269                 0.6534
 IR Inten    --      8.8718                25.9075                 3.7786

                     34                     35                     36
                      A                      A                      A
 Frequencies --    780.0636               788.1779               804.9897
 Red. masses --      1.8061                 1.7573                 1.2278
 Frc consts  --      0.6475                 0.6432                 0.4688
 IR Inten    --      7.0029                 7.8918                 0.4976

                     37                     38                     39
                      A                      A                      A
 Frequencies --    814.4740               832.9005               847.5852
 Red. masses --      1.6081                 1.4092                 1.4187
 Frc consts  --      0.6285                 0.5760                 0.6005
 IR Inten    --     31.0038                 2.2106                 4.7003

                     40                     41                     42
                      A                      A                      A
 Frequencies --    851.7352               866.2709               916.3473
 Red. masses --      2.1015                 4.9488                 1.6374
 Frc consts  --      0.8982                 2.1881                 0.8101
 IR Inten    --     11.2364                11.2707                20.5071

                     43                     44                     45
                      A                      A                      A
 Frequencies --    920.1828               921.2691               924.0710
 Red. masses --      1.8046                 1.7729                 1.6704
 Frc consts  --      0.9003                 0.8866                 0.8404
 IR Inten    --      6.1501                 5.6150                 4.1797

                     46                     47                     48
                      A                      A                      A
 Frequencies --    969.2013               971.9460               985.7482
 Red. masses --      2.5143                 2.4081                 1.2976
 Frc consts  --      1.3915                 1.3403                 0.7429
 IR Inten    --      8.3698                 6.5926                 0.3589

                     49                     50                     51
                      A                      A                      A
 Frequencies --   1000.4913              1007.6904              1021.6401
 Red. masses --      2.8726                 2.6996                 5.7526
 Frc consts  --      1.6942                 1.6151                 3.5376
 IR Inten    --      9.0998                 4.3475                 0.7973

                     52                     53                     54
                      A                      A                      A
 Frequencies --   1028.2569              1065.1212              1069.8769
 Red. masses --      2.3750                 1.3822                 1.4668
 Frc consts  --      1.4795                 0.9239                 0.9892
 IR Inten    --      5.8944                13.4487                11.8900

                     55                     56                     57
                      A                      A                      A
 Frequencies --   1081.3451              1082.6330              1099.6797
 Red. masses --      1.3852                 1.3946                 1.8445
 Frc consts  --      0.9543                 0.9631                 1.3142
 IR Inten    --      0.9732                 2.6588                16.6323

                     58                     59                     60
                      A                      A                      A
 Frequencies --   1124.4710              1142.2046              1145.5924
 Red. masses --      1.6634                 1.1988                 1.1775
 Frc consts  --      1.2392                 0.9215                 0.9105
 IR Inten    --      1.6922                 9.5520                 3.2844

                     61                     62                     63
                      A                      A                      A
 Frequencies --   1166.3473              1182.1609              1190.9187
 Red. masses --      2.2319                 1.6963                 1.8575
 Frc consts  --      1.7889                 1.3967                 1.5522
 IR Inten    --     36.7757                21.4395                10.2046

                     64                     65                     66
                      A                      A                      A
 Frequencies --   1205.7398              1206.7148              1212.2444
 Red. masses --      1.3257                 1.1913                 1.3999
 Frc consts  --      1.1355                 1.0220                 1.2120
 IR Inten    --      0.1701                 0.1197                 1.0120

                     67                     68                     69
                      A                      A                      A
 Frequencies --   1222.7140              1237.3599              1248.8684
 Red. masses --      2.1670                 1.9089                 2.0139
 Frc consts  --      1.9088                 1.7219                 1.8506
 IR Inten    --     18.2667                 7.3430                37.4068

                     70                     71                     72
                      A                      A                      A
 Frequencies --   1278.0930              1305.6848              1326.5745
 Red. masses --      2.6778                 1.9067                 1.9748
 Frc consts  --      2.5772                 1.9152                 2.0475
 IR Inten    --     28.6953               131.8713                 5.7141

                     73                     74                     75
                      A                      A                      A
 Frequencies --   1330.9859              1362.6017              1366.4285
 Red. masses --      1.5026                 1.8446                 1.9282
 Frc consts  --      1.5683                 2.0179                 2.1212
 IR Inten    --     34.6943                12.5964                53.3588

                     76                     77                     78
                      A                      A                      A
 Frequencies --   1393.1706              1408.7216              1424.0103
 Red. masses --      1.4382                 1.3211                 1.5895
 Frc consts  --      1.6447                 1.5447                 1.8991
 IR Inten    --     41.1071                11.3371                60.5125

                     79                     80                     81
                      A                      A                      A
 Frequencies --   1454.3906              1464.5093              1482.9412
 Red. masses --      2.6137                 1.5444                 1.0944
 Frc consts  --      3.2573                 1.9516                 1.4180
 IR Inten    --     55.9477                15.0050                 0.6394

                     82                     83                     84
                      A                      A                      A
 Frequencies --   1490.7807              1494.5460              1496.5342
 Red. masses --      2.1178                 1.0900                 1.1351
 Frc consts  --      2.7730                 1.4345                 1.4978
 IR Inten    --      3.8132                 1.5631                 7.1947

                     85                     86                     87
                      A                      A                      A
 Frequencies --   1523.4741              1532.4214              1538.8197
 Red. masses --      1.1472                 1.4023                 1.3665
 Frc consts  --      1.5688                 1.9402                 1.9064
 IR Inten    --      4.2289                 8.6918                 5.0291

                     88                     89                     90
                      A                      A                      A
 Frequencies --   1541.8425              1637.3848              1660.8668
 Red. masses --      2.5378                 5.4370                 5.8676
 Frc consts  --      3.5546                 8.5884                 9.5362
 IR Inten    --     64.9506                47.6791                44.5904

                     91                     92                     93
                      A                      A                      A
 Frequencies --   1781.4054              2355.0134              2923.7210
 Red. masses --      8.3082                12.6801                 1.0727
 Frc consts  --     15.5340                41.4343                 5.4025
 IR Inten    --    354.0131                22.2975                49.4088

                     94                     95                     96
                      A                      A                      A
 Frequencies --   3063.0348              3097.5094              3102.2426
 Red. masses --      1.0866                 1.0824                 1.0618
 Frc consts  --      6.0063                 6.1189                 6.0207
 IR Inten    --     35.4908                28.4924                12.2578

                     97                     98                     99
                      A                      A                      A
 Frequencies --   3141.2077              3147.8702              3152.7905
 Red. masses --      1.0528                 1.0571                 1.0571
 Frc consts  --      6.1203                 6.1718                 6.1907
 IR Inten    --     21.7186                10.5300                15.4852

                    100                    101                    102
                      A                      A                      A
 Frequencies --   3153.9528              3158.5916              3163.9208
 Red. masses --      1.1009                 1.0597                 1.0895
 Frc consts  --      6.4523                 6.2290                 6.4256
 IR Inten    --     25.7834                 9.1897                 9.1201

                    103                    104                    105
                      A                      A                      A
 Frequencies --   3199.7326              3214.3860              3216.7227
 Red. masses --      1.0880                 1.0926                 1.1185
 Frc consts  --      6.5628                 6.6516                 6.8191
 IR Inten    --      4.8003                 7.1072                 1.4903

                    106                    107                    108
                      A                      A                      A
 Frequencies --   3230.6678              3231.5570              3231.5787
 Red. masses --      1.0924                 1.1082                 1.1025
 Frc consts  --      6.7178                 6.8188                 6.7837
 IR Inten    --      3.4185                15.0661                10.4033

                    109                    110                    111
                      A                      A                      A
 Frequencies --   3232.6842              3247.4943              3567.1897
 Red. masses --      1.1191                 1.1160                 1.0754
 Frc consts  --      6.8901                 6.9342                 8.0623
 IR Inten    --      1.9312                17.9483                27.5910

 - Thermochemistry -
 -------------------
 Temperature   298.150 Kelvin.  Pressure   1.00000 Atm.
 Atom     1 has atomic number  6 and mass  12.00000

 Molecular mass:   269.15281 amu.
 Principal axes and moments of inertia in atomic units:
                           1         2         3
     Eigenvalues --  3631.044129005.92319**********
           X            0.99990  -0.00106   0.01382
           Y            0.00142   0.99965  -0.02653
           Z           -0.01379   0.02654   0.99955
 This molecule is an asymmetric top.
 Rotational symmetry number  1.
 Warning -- assumption of classical behavior for rotation
           may cause significant error
 Rotational temperatures (Kelvin)      0.02385     0.00962     0.00858
 Rotational constants (GHZ):           0.49703     0.20039     0.17887
 Zero-point vibrational energy     856733.4 (Joules/Mol)
                                  204.76419 (Kcal/Mol)
 Warning -- explicit consideration of  29 degrees of freedom as
           vibrations may cause significant error
 Vibrational temperatures:     15.78    42.45    53.81    85.25    93.36
          (Kelvin)            116.71   142.21   164.03   189.47   213.18
                              232.00   273.84   295.59   368.22   422.74
                              444.27   507.40   531.53   555.22   577.70
                              600.34   657.77   672.22   676.16   738.90
                              751.33   828.74   844.64   888.10   957.37
                             1008.04  1048.40  1073.70  1122.34  1134.01
                             1158.20  1171.85  1198.36  1219.49  1225.46
                             1246.37  1318.42  1323.94  1325.50  1329.53
                             1394.46  1398.41  1418.27  1439.48  1449.84
                             1469.91  1479.43  1532.47  1539.31  1555.81
                             1557.67  1582.19  1617.86  1643.38  1648.25
                             1678.11  1700.87  1713.47  1734.79  1736.19
                             1744.15  1759.21  1780.28  1796.84  1838.89
                             1878.59  1908.64  1914.99  1960.48  1965.99
                             2004.46  2026.84  2048.83  2092.54  2107.10
                             2133.62  2144.90  2150.32  2153.18  2191.94
                             2204.81  2214.02  2218.37  2355.83  2389.62
                             2563.05  3388.34  4206.58  4407.02  4456.63
                             4463.44  4519.50  4529.08  4536.16  4537.83
                             4544.51  4552.18  4603.70  4624.78  4628.15
                             4648.21  4649.49  4649.52  4651.11  4672.42
                             5132.39

 Zero-point correction=                           0.326313 (Hartree/Particle)
 Thermal correction to Energy=                    0.345283
 Thermal correction to Enthalpy=                  0.346227
 Thermal correction to Gibbs Free Energy=         0.276256
 Sum of electronic and zero-point Energies=           -860.288777
 Sum of electronic and thermal Energies=              -860.269807
 Sum of electronic and thermal Enthalpies=            -860.268863
 Sum of electronic and thermal Free Energies=         -860.338834

                     E (Thermal)             CV                S
                      KCal/Mol        Cal/Mol-Kelvin    Cal/Mol-Kelvin
 Total                  216.668             71.992            147.267
 Electronic               0.000              0.000              0.000
 Translational            0.889              2.981             42.669
 Rotational               0.889              2.981             34.155
 Vibrational            214.891             66.030             70.442
 Vibration     1          0.593              1.987              7.828
 Vibration     2          0.593              1.984              5.862
 Vibration     3          0.594              1.982              5.392
 Vibration     4          0.597              1.974              4.482
 Vibration     5          0.597              1.971              4.303
 Vibration     6          0.600              1.962              3.864
 Vibration     7          0.604              1.950              3.477
 Vibration     8          0.607              1.938              3.200
 Vibration     9          0.612              1.922              2.921
 Vibration    10          0.618              1.905              2.696
 Vibration    11          0.622              1.890              2.535
 Vibration    12          0.634              1.853              2.225
 Vibration    13          0.640              1.832              2.084
 Vibration    14          0.666              1.753              1.689
 Vibration    15          0.689              1.685              1.452
 Vibration    16          0.698              1.657              1.369
 Vibration    17          0.729              1.570              1.154
 Vibration    18          0.742              1.535              1.082
 Vibration    19          0.755              1.500              1.016
 Vibration    20          0.767              1.467              0.957
 Vibration    21          0.780              1.433              0.901
 Vibration    22          0.815              1.345              0.774
 Vibration    23          0.824              1.323              0.745
 Vibration    24          0.827              1.317              0.738
 Vibration    25          0.869              1.220              0.625
 Vibration    26          0.877              1.201              0.605
 Vibration    27          0.932              1.083              0.493
 Vibration    28          0.944              1.059              0.472
 Vibration    29          0.977              0.995              0.421

                           ! Non-Optimized Parameters !
 Normal termination of Gaussian 16 at Mon Dec 14 19:26:11 2020.

 ----------------------------------------------------------------------
 # B3LYP/6-311++G(d,p) empiricaldispersion=gd3bj scf=xqc pop=npa geom=c
 heck
 ----------------------------------------------------------------------

 ---------------------------------------
 CID_63101912_JID_10848_Energie_neutraal
 ---------------------------------------
 Structure from the checkpoint file:  "JID_10848.chk"
 Charge =  0 Multiplicity = 1

 SCF Done:  E(RB3LYP) =  -860.849515975     A.U. after   16 cycles
 Normal termination of Gaussian 16 at Mon Dec 14 19:36:53 2020.

 ----------------------------------------------------------------------
 # B3LYP/6-311++G(d,p) empiricaldispersion=gd3bj scf=xqc pop=npa geom=c
 heck
 ----------------------------------------------------------------------

 -------------------------------------
 CID_63101912_JID_10848_Energie_kation
 -------------------------------------
 Structure from the checkpoint file:  "JID_10848.chk"
 Charge =  1 Multiplicity = 2

 SCF Done:  E(UB3LYP) =  -860.557670033     A.U. after   25 cycles
 Normal termination of Gaussian 16 at Mon Dec 14 20:00:19 2020.
 Gaussian 16:  ES64L-G16RevA.03 25-Dec-2016

 ----------------------------------------------------------------------
 # B3LYP/6-311++G(d,p) empiricaldispersion=gd3bj scf=xqc pop=npa geom=c
 heck
 ----------------------------------------------------------------------

 ------------------------------------
 CID_63101912_JID_10848_Energie_anion
 ------------------------------------
 Structure from the checkpoint file:  "JID_10848.chk"
 Charge = -1 Multiplicity = 2

                         Standard orientation:
 ---------------------------------------------------------------------
 Center     Atomic      Atomic             Coordinates (Angstroms)
 Number     Number       Type             X           Y           Z
 ---------------------------------------------------------------------
      1          6           0        3.396504    2.409432    0.055126
      2          6           0        2.174502    3.286887    0.154445
      3          6           0        2.176532    1.915866    0.787202
      4          6           0        1.298603    0.843253    0.187318
      5          7           0        1.660358   -0.513597    0.607421
      6          6           0        0.593271   -1.483398    0.347302
      7          6           0        0.318619   -1.644574   -1.152886
      8          8           0        1.092175   -2.249639   -1.881266
      9          7           0       -0.752413   -0.966881   -1.720608
     10          6           0       -1.785666   -0.221642   -1.113876
     11          6           0       -2.063875    1.072274   -1.576483
     12          6           0       -3.089818    1.822033   -1.005236
     13          6           0       -3.841677    1.304854    0.046311
     14          6           0       -3.571045    0.007260    0.506734
     15          6           0       -2.560257   -0.763285   -0.084930
     16          6           0       -4.347870   -0.549181    1.575152
     17          7           0       -4.976776   -0.998797    2.443709
     18          6           0        2.958706   -0.946801    0.153834
     19          6           0        4.155750   -0.643116    1.014234
     20          6           0        3.627086   -2.052954    0.923144
     21          1           0        4.274689    2.673489    0.637071
     22          1           0        3.621467    1.954794   -0.906080
     23          1           0        2.208295    4.155185    0.805985
     24          1           0        1.575901    3.429617   -0.742412
     25          1           0        2.238199    1.879740    1.872588
     26          1           0        0.261482    1.012525    0.502497
     27          1           0        1.312098    0.953030   -0.915224
     28          1           0        0.914843   -2.458927    0.718061
     29          1           0       -0.291053   -1.168932    0.904402
     30          1           0       -0.700177   -0.951270   -2.733690
     31          1           0       -1.457485    1.488836   -2.375255
     32          1           0       -3.292441    2.823252   -1.372173
     33          1           0       -4.632158    1.885961    0.507673
     34          1           0       -2.393519   -1.781861    0.245242
     35          1           0        3.116396   -0.949712   -0.927320
     36          1           0        5.090414   -0.396949    0.518546
     37          1           0        3.972871   -0.103947    1.937240
     38          1           0        3.102167   -2.438699    1.792467
     39          1           0        4.186243   -2.795534    0.362528
 ---------------------------------------------------------------------

 SCF Done:  E(UB3LYP) =  -860.868131779     A.U. after   30 cycles

 The electronic state is 2-A.
 Alpha  occ. eigenvalues --  -18.98293 -14.23041 -14.22016 -14.14861 -10.16350
 Alpha  occ. eigenvalues --  -10.10944 -10.10066 -10.09909 -10.09311 -10.09103
 Alpha  occ. eigenvalues --  -10.09076 -10.08609 -10.08578 -10.08071 -10.05123
 Alpha  occ. eigenvalues --  -10.04487 -10.04345 -10.04170 -10.03457 -10.02306
 Alpha  occ. eigenvalues --   -0.93612  -0.84446  -0.81738  -0.77845  -0.75471
 Alpha  occ. eigenvalues --   -0.75276  -0.71654  -0.63710  -0.62653  -0.61523
 Alpha  occ. eigenvalues --   -0.58381  -0.52660  -0.51569  -0.51030  -0.50281
 Alpha  occ. eigenvalues --   -0.49745  -0.48150  -0.45175  -0.43337  -0.42685
 Alpha  occ. eigenvalues --   -0.41085  -0.39939  -0.38085  -0.36519  -0.36372
 Alpha  occ. eigenvalues --   -0.35924  -0.34659  -0.33458  -0.32511  -0.31593
 Alpha  occ. eigenvalues --   -0.30359  -0.29876  -0.28980  -0.28405  -0.28339
 Alpha  occ. eigenvalues --   -0.27548  -0.26700  -0.25498  -0.24132  -0.23374
 Alpha  occ. eigenvalues --   -0.22864  -0.21858  -0.21516  -0.20934  -0.20113
 Alpha  occ. eigenvalues --   -0.19730  -0.18421  -0.17333  -0.16741  -0.12824
 Alpha  occ. eigenvalues --   -0.12282  -0.11103   0.04117
 Alpha virt. eigenvalues --    0.06214   0.07399   0.07614   0.08203   0.09205
 Alpha virt. eigenvalues --    0.09516   0.09678   0.10205   0.10402   0.10685
 Alpha virt. eigenvalues --    0.11605   0.11874   0.12104   0.12583   0.12939

  Beta  occ. eigenvalues --  -18.98258 -14.23060 -14.22008 -14.14526 -10.16310
  Beta  occ. eigenvalues --  -10.10944 -10.10064 -10.09902 -10.09311 -10.09103
  Beta  occ. eigenvalues --  -10.09075 -10.08609 -10.08577 -10.08055 -10.05132
  Beta  occ. eigenvalues --  -10.04265 -10.04214 -10.04114 -10.03262 -10.01843
  Beta  occ. eigenvalues --   -0.93548  -0.84432  -0.81669  -0.77844  -0.75275
  Beta  occ. eigenvalues --   -0.74953  -0.71178  -0.63591  -0.62009  -0.61144
  Beta  occ. eigenvalues --   -0.58342  -0.52652  -0.51555  -0.50827  -0.49723
  Beta  occ. eigenvalues --   -0.49454  -0.48108  -0.45099  -0.43160  -0.42681
  Beta  occ. eigenvalues --   -0.41077  -0.39918  -0.38049  -0.36373  -0.36176
  Beta  occ. eigenvalues --   -0.35859  -0.34463  -0.33239  -0.32358  -0.31560
  Beta  occ. eigenvalues --   -0.30236  -0.29829  -0.28960  -0.28343  -0.28275
  Beta  occ. eigenvalues --   -0.27488  -0.26583  -0.24290  -0.23839  -0.23156
  Beta  occ. eigenvalues --   -0.22851  -0.21852  -0.20987  -0.20154  -0.19867
  Beta  occ. eigenvalues --   -0.19573  -0.18208  -0.17033  -0.16401  -0.12386
  Beta  occ. eigenvalues --   -0.11145  -0.09442
  Beta virt. eigenvalues --    0.06205   0.07387   0.07597   0.08192   0.09170
  Beta virt. eigenvalues --    0.09470   0.09730   0.10228   0.10382   0.10539
  Beta virt. eigenvalues --    0.10765   0.11586   0.11941   0.12161   0.12750

 Mulliken charges and spin densities:
               1          2
     1  C   -0.340877   0.003675
     2  C   -0.469681  -0.012394
     3  C    0.338573   0.026668
     4  C   -0.839241  -0.024679
     5  N    0.246955   0.004221
     6  C    0.021960  -0.028900
     7  C   -0.206324   0.045749
     8  O   -0.314554   0.015267
     9  N   -0.166377  -0.021574
    10  C    0.087562  -0.135425
    11  C   -0.156040   0.528214
    12  C   -0.395422  -0.006901
    13  C   -0.373891   0.213503
    14  C    1.252644   0.246971
    15  C   -0.012931   0.023884
    16  C   -1.402096  -0.110871
    17  N   -0.333520   0.180307
    18  C   -0.320044  -0.000517
    19  C   -0.243019   0.000796
    20  C   -0.393888  -0.000058
    21  H    0.131835   0.000069
    22  H    0.139774  -0.000031
    23  H    0.140292  -0.000604
    24  H    0.125147   0.004197
    25  H    0.229973   0.000071
    26  H    0.157295  -0.004352
    27  H    0.171635   0.003307
    28  H    0.160778  -0.000901
    29  H    0.229924   0.008457
    30  H    0.241550   0.064833
    31  H    0.091735  -0.012837
    32  H    0.121901   0.001693
    33  H    0.148275  -0.009662
    34  H    0.193615  -0.003564
    35  H    0.201286   0.001468
    36  H    0.139931  -0.000028
    37  H    0.114355  -0.000085
    38  H    0.134235   0.000054
    39  H    0.146678  -0.000021
 Sum of Mulliken charges =  -1.00000   1.00000

 Dipole moment (field-independent basis, Debye):
    X=             11.8456    Y=              3.3037    Z=             -1.7292  Tot=             12.4187
 Quadrupole moment (field-independent basis, Debye-Ang):
   XX=           -201.2809   YY=           -138.4338   ZZ=           -148.9919
   XY=             -3.8004   XZ=             24.4233   YZ=              0.4502

 Summary of Natural Population Analysis:

                                       Natural Population
                Natural  -----------------------------------------------
    Atom  No    Charge         Core      Valence    Rydberg      Total
 -----------------------------------------------------------------------
      C    1   -0.20015      0.99963     2.19386    0.00666     3.20015
      C    2   -0.19846      0.99963     2.19250    0.00633     3.19846
      C    3   -0.11287      0.99959     2.10469    0.00858     3.11287
      C    4   -0.08933      0.99959     2.07822    0.01152     3.08933
      N    5   -0.27286      0.99970     2.75845    0.01471     3.77286
      C    6   -0.12324      0.99957     2.11442    0.00924     3.12324
      C    7    0.33861      0.99968     1.64034    0.02137     2.66139
      O    8   -0.32954      0.99987     3.32292    0.00675     4.32954
      N    9   -0.31328      0.99964     2.80210    0.01154     3.81328
      C   10    0.05592      0.99946     1.93178    0.01283     2.94408
      C   11   -0.02407      0.99953     2.01609    0.00844     3.02407
      C   12   -0.11405      0.99958     2.10575    0.00872     3.11405
      C   13   -0.04771      0.99955     2.04044    0.00773     3.04771
      C   14   -0.03712      0.99942     2.02708    0.01062     3.03712
      C   15   -0.07900      0.99950     2.07120    0.00830     3.07900
      C   16    0.14625      0.99965     1.83542    0.01869     2.85375
      N   17   -0.16443      0.99979     2.65323    0.01142     3.66443
      C   18   -0.01609      0.99956     2.00336    0.01316     3.01609
      C   19   -0.20065      0.99962     2.19433    0.00670     3.20065
      C   20   -0.20091      0.99962     2.19468    0.00661     3.20091
      H   21    0.09795      0.00000     0.40106    0.00099     0.40205
      H   22    0.10145      0.00000     0.39763    0.00092     0.39855
      H   23    0.09904      0.00000     0.40004    0.00091     0.40096
      H   24    0.10321      0.00000     0.39583    0.00096     0.39679
      H   25    0.10271      0.00000     0.39616    0.00113     0.39729
      H   26    0.11017      0.00000     0.38874    0.00109     0.38983
      H   27    0.08355      0.00000     0.41502    0.00143     0.41645
      H   28    0.10371      0.00000     0.39533    0.00096     0.39629
      H   29    0.11051      0.00000     0.38854    0.00094     0.38949
      H   30    0.19484      0.00000     0.30322    0.00194     0.30516
      H   31    0.08776      0.00000     0.41095    0.00129     0.41224
      H   32    0.09184      0.00000     0.40711    0.00105     0.40816
      H   33    0.09461      0.00000     0.40448    0.00091     0.40539
      H   34    0.09843      0.00000     0.40053    0.00104     0.40157
      H   35    0.09771      0.00000     0.40034    0.00195     0.40229
      H   36    0.09720      0.00000     0.40181    0.00099     0.40280
      H   37    0.10403      0.00000     0.39475    0.00122     0.39597
      H   38    0.10330      0.00000     0.39570    0.00100     0.39670
      H   39    0.10096      0.00000     0.39813    0.00091     0.39904
 =======================================================================
   * Total *   -0.00000     19.99218    51.77625    0.23157    72.00000

 Normal termination of Gaussian 16 at Mon Dec 14 20:28:22 2020.
