 Gaussian 16, Revision A.03,

 -----------------------------------------------------------
 # opt freq B3LYP/6-31G(d) empiricaldispersion=gd3bj scf=xqc
 -----------------------------------------------------------

 -------------------------------
 CID_153952405_JID_2365_neutraal
 -------------------------------
 Symbolic Z-matrix:
 Charge =  0 Multiplicity = 1

 SCF Done:  E(RB3LYP) =  -570.838504210     A.U. after   14 cycles
 SCF Done:  E(RB3LYP) =  -570.846858519     A.U. after   12 cycles
 SCF Done:  E(RB3LYP) =  -570.848528671     A.U. after   11 cycles
 SCF Done:  E(RB3LYP) =  -570.848997177     A.U. after   10 cycles
 SCF Done:  E(RB3LYP) =  -570.849040493     A.U. after    9 cycles
 SCF Done:  E(RB3LYP) =  -570.849048813     A.U. after    8 cycles
 Optimization completed.
    -- Stationary point found.
 Normal termination of Gaussian 16 at Wed Dec  9 17:09:45 2020.

 --------------------------------------------------------------------
 #N Geom=AllCheck Guess=TCheck SCRF=Check GenChk RB3LYP/6-31G(d) Freq
 --------------------------------------------------------------------

 Structure from the checkpoint file:  "JID_2365.chk"
 -------------------------------
 CID_153952405_JID_2365_neutraal
 -------------------------------
 Charge =  0 Multiplicity = 1

 SCF Done:  E(RB3LYP) =  -570.849048813     A.U. after    1 cycles

  Exact polarizability: 128.910  -0.000  93.476  -0.000 -11.451  66.125
 Approx polarizability: 189.002  -0.001 155.991  -0.001 -32.642 103.372

                      1                      2                      3
                      A                      A                      A
 Frequencies --     70.9437               130.0475               197.7181
 Red. masses --      5.0396                 3.8125                 4.6576
 Frc consts  --      0.0149                 0.0380                 0.1073
 IR Inten    --      0.2880                 0.0052                 1.7536

                      4                      5                      6
                      A                      A                      A
 Frequencies --    245.2875               291.2750               325.7091
 Red. masses --      2.9123                 4.8540                 1.4860
 Frc consts  --      0.1032                 0.2426                 0.0929
 IR Inten    --      9.4911                 2.1947                 4.6984

                      7                      8                      9
                      A                      A                      A
 Frequencies --    348.0621               376.8720               418.5115
 Red. masses --      1.6413                 2.1882                 2.2384
 Frc consts  --      0.1172                 0.1831                 0.2310
 IR Inten    --     35.3609                27.6172                38.6563

                     10                     11                     12
                      A                      A                      A
 Frequencies --    458.2305               495.7111               499.4093
 Red. masses --      3.1581                 6.1096                 3.2628
 Frc consts  --      0.3907                 0.8845                 0.4795
 IR Inten    --     28.8786                 1.8333                41.3423

                     13                     14                     15
                      A                      A                      A
 Frequencies --    549.5477               558.9770               567.9596
 Red. masses --      6.1548                 4.2506                 6.6341
 Frc consts  --      1.0951                 0.7825                 1.2609
 IR Inten    --      0.8460                 0.0239                 0.1221

                     16                     17                     18
                      A                      A                      A
 Frequencies --    628.0306               720.3057               744.2116
 Red. masses --      3.5523                 4.9994                 5.8773
 Frc consts  --      0.8255                 1.5283                 1.9179
 IR Inten    --      1.0997                 0.2563                 0.8278

                     19                     20                     21
                      A                      A                      A
 Frequencies --    764.3571               798.7271               846.2688
 Red. masses --      1.2466                 2.3449                 2.0073
 Frc consts  --      0.4291                 0.8814                 0.8470
 IR Inten    --     65.6124               112.7839               300.0785

                     22                     23                     24
                      A                      A                      A
 Frequencies --    849.5688               860.7501               868.1207
 Red. masses --      5.7073                 1.4717                 2.4299
 Frc consts  --      2.4270                 0.6424                 1.0789
 IR Inten    --     45.3386                16.4105               128.5256

                     25                     26                     27
                      A                      A                      A
 Frequencies --    870.6720               930.5738               960.5084
 Red. masses --      2.1686                 1.3471                 4.8907
 Frc consts  --      0.9686                 0.6873                 2.6584
 IR Inten    --     50.4839                 1.8533                41.2236

                     28                     29                     30
                      A                      A                      A
 Frequencies --    961.2498               991.5384              1062.0188
 Red. masses --      1.2105                 3.3267                 1.9337
 Frc consts  --      0.6590                 1.9270                 1.2850
 IR Inten    --      0.0070               244.5888                17.6416

                     31                     32                     33
                      A                      A                      A
 Frequencies --   1129.8163              1145.7852              1160.9250
 Red. masses --      1.9229                 1.4464                 1.7104
 Frc consts  --      1.4462                 1.1188                 1.3582
 IR Inten    --     23.3196                40.3115                61.0615

                     34                     35                     36
                      A                      A                      A
 Frequencies --   1185.0807              1199.8217              1224.0131
 Red. masses --      1.0984                 1.7431                 2.7177
 Frc consts  --      0.9089                 1.4784                 2.3990
 IR Inten    --      4.5756                 3.9427                10.8814

                     37                     38                     39
                      A                      A                      A
 Frequencies --   1277.3714              1290.7766              1310.7575
 Red. masses --      2.1885                 2.9929                 1.5475
 Frc consts  --      2.1039                 2.9380                 1.5665
 IR Inten    --     14.1627               277.2538                 0.2694

                     40                     41                     42
                      A                      A                      A
 Frequencies --   1357.1543              1400.1051              1401.0961
 Red. masses --      5.1412                 1.4409                 1.4325
 Frc consts  --      5.5792                 1.6642                 1.6568
 IR Inten    --      1.6764                 5.0314                 5.3572

                     43                     44                     45
                      A                      A                      A
 Frequencies --   1419.5295              1471.7670              1509.0643
 Red. masses --      1.2059                 1.7513                 2.5741
 Frc consts  --      1.4317                 2.2350                 3.4537
 IR Inten    --     10.2605                 2.1493                 5.3594

                     46                     47                     48
                      A                      A                      A
 Frequencies --   1542.5908              1647.6389              1665.8911
 Red. masses --      2.9521                 6.8458                 6.1247
 Frc consts  --      4.1389                10.9496                10.0144
 IR Inten    --    170.8416                19.5247                 3.1645

                     49                     50                     51
                      A                      A                      A
 Frequencies --   1691.3920              1695.1353              3147.6948
 Red. masses --      1.1095                 1.1095                 1.0884
 Frc consts  --      1.8702                 1.8784                 6.3537
 IR Inten    --     61.1157                 7.5266                13.1439

                     52                     53                     54
                      A                      A                      A
 Frequencies --   3151.8498              3192.2289              3203.7017
 Red. masses --      1.0889                 1.0853                 1.0893
 Frc consts  --      6.3735                 6.5161                 6.5873
 IR Inten    --     34.9365                 0.9231                12.5398

                     55                     56                     57
                      A                      A                      A
 Frequencies --   3212.7877              3219.5812              3502.8172
 Red. masses --      1.0931                 1.0974                 1.0485
 Frc consts  --      6.6478                 6.7019                 7.5797
 IR Inten    --     17.4827                12.1971                 0.3755

                     58                     59                     60
                      A                      A                      A
 Frequencies --   3503.2599              3592.7922              3593.1060
 Red. masses --      1.0486                 1.0942                 1.0942
 Frc consts  --      7.5820                 8.3220                 8.3229
 IR Inten    --      1.7615                 0.9493                 8.5635

 - Thermochemistry -
 -------------------
 Temperature   298.150 Kelvin.  Pressure   1.00000 Atm.
 Atom     1 has atomic number  6 and mass  12.00000

 Molecular mass:   166.07423 amu.
 Principal axes and moments of inertia in atomic units:
                           1         2         3
     Eigenvalues --  1018.647642292.509502586.83423
           X            1.00000  -0.00000  -0.00000
           Y            0.00000   0.99963   0.02712
           Z            0.00000  -0.02712   0.99963
 This molecule is an asymmetric top.
 Rotational symmetry number  1.
 Warning -- assumption of classical behavior for rotation
           may cause significant error
 Rotational temperatures (Kelvin)      0.08503     0.03778     0.03348
 Rotational constants (GHZ):           1.77170     0.78723     0.69766
 Zero-point vibrational energy     475136.9 (Joules/Mol)
                                  113.56046 (Kcal/Mol)
 Warning -- explicit consideration of  15 degrees of freedom as
           vibrations may cause significant error
 Vibrational temperatures:    102.07   187.11   284.47   352.91   419.08
          (Kelvin)            468.62   500.78   542.23   602.14   659.29
                              713.22   718.54   790.68   804.24   817.17
                              903.60  1036.36  1070.75  1099.74  1149.19
                             1217.59  1222.34  1238.43  1249.03  1252.70
                             1338.89  1381.96  1383.02  1426.60  1528.01
                             1625.55  1648.53  1670.31  1705.07  1726.28
                             1761.08  1837.85  1857.14  1885.89  1952.64
                             2014.44  2015.86  2042.39  2117.54  2171.21
                             2219.44  2370.58  2396.85  2433.54  2438.92
                             4528.83  4534.81  4592.91  4609.41  4622.48
                             4632.26  5039.77  5040.41  5169.23  5169.68

 Zero-point correction=                           0.180970 (Hartree/Particle)
 Thermal correction to Energy=                    0.190631
 Thermal correction to Enthalpy=                  0.191575
 Thermal correction to Gibbs Free Energy=         0.146356
 Sum of electronic and zero-point Energies=           -570.668079
 Sum of electronic and thermal Energies=              -570.658418
 Sum of electronic and thermal Enthalpies=            -570.657474
 Sum of electronic and thermal Free Energies=         -570.702692

                     E (Thermal)             CV                S
                      KCal/Mol        Cal/Mol-Kelvin    Cal/Mol-Kelvin
 Total                  119.623             39.804             95.171
 Electronic               0.000              0.000              0.000
 Translational            0.889              2.981             41.230
 Rotational               0.889              2.981             30.181
 Vibrational            117.845             33.842             23.760
 Vibration     1          0.598              1.968              4.127
 Vibration     2          0.612              1.923              2.945
 Vibration     3          0.637              1.843              2.154
 Vibration     4          0.660              1.771              1.764
 Vibration     5          0.687              1.690              1.467
 Vibration     6          0.710              1.624              1.281
 Vibration     7          0.726              1.579              1.175
 Vibration     8          0.747              1.519              1.052
 Vibration     9          0.781              1.430              0.897
 Vibration    10          0.816              1.343              0.771
 Vibration    11          0.851              1.260              0.669
 Vibration    12          0.855              1.251              0.660
 Vibration    13          0.905              1.141              0.545
 Vibration    14          0.915              1.120              0.526
 Vibration    15          0.924              1.101              0.508

                           ! Non-Optimized Parameters !
 Normal termination of Gaussian 16 at Wed Dec  9 17:14:47 2020.

 ----------------------------------------------------------------------
 # B3LYP/6-311++G(d,p) empiricaldispersion=gd3bj scf=xqc pop=npa geom=c
 heck
 ----------------------------------------------------------------------

 ---------------------------------------
 CID_153952405_JID_2365_Energie_neutraal
 ---------------------------------------
 Structure from the checkpoint file:  "JID_2365.chk"
 Charge =  0 Multiplicity = 1

 SCF Done:  E(RB3LYP) =  -571.021076380     A.U. after   14 cycles
 Normal termination of Gaussian 16 at Wed Dec  9 17:16:34 2020.

 ----------------------------------------------------------------------
 # B3LYP/6-311++G(d,p) empiricaldispersion=gd3bj scf=xqc pop=npa geom=c
 heck
 ----------------------------------------------------------------------

 -------------------------------------
 CID_153952405_JID_2365_Energie_kation
 -------------------------------------
 Structure from the checkpoint file:  "JID_2365.chk"
 Charge =  1 Multiplicity = 2

 SCF Done:  E(UB3LYP) =  -570.725705717     A.U. after   19 cycles
 Normal termination of Gaussian 16 at Wed Dec  9 17:19:24 2020.
 Gaussian 16:  ES64L-G16RevA.03 25-Dec-2016

 ----------------------------------------------------------------------
 # B3LYP/6-311++G(d,p) empiricaldispersion=gd3bj scf=xqc pop=npa geom=c
 heck
 ----------------------------------------------------------------------

 ------------------------------------
 CID_153952405_JID_2365_Energie_anion
 ------------------------------------
 Structure from the checkpoint file:  "JID_2365.chk"
 Charge = -1 Multiplicity = 2

                         Standard orientation:
 ---------------------------------------------------------------------
 Center     Atomic      Atomic             Coordinates (Angstroms)
 Number     Number       Type             X           Y           Z
 ---------------------------------------------------------------------
      1          6           0       -2.902700   -0.632848    0.295842
      2          6           0       -2.902712    0.632789   -0.295876
      3          6           0       -1.695893    1.268049   -0.583820
      4          6           0       -0.486173    0.640049   -0.289388
      5          6           0       -0.486158   -0.640105    0.289289
      6          6           0       -1.695873   -1.268102    0.583765
      7          8           0        0.687329   -1.285979    0.600532
      8          6           0        1.859153   -0.760110   -0.089870
      9          6           0        1.859068    0.760185    0.090005
     10          8           0        0.687323    1.285917   -0.600655
     11          7           0        1.943911    1.095264    1.475275
     12          7           0        1.944285   -1.095151   -1.475138
     13          1           0       -3.840008   -1.129484    0.527446
     14          1           0       -3.840028    1.129420   -0.527456
     15          1           0       -1.665120    2.255315   -1.034112
     16          1           0       -1.665089   -2.255363    1.034065
     17          1           0        2.692026   -1.206227    0.453896
     18          1           0        2.691999    1.206372   -0.453611
     19          1           0        1.834148    2.096645    1.610290
     20          1           0        1.225105    0.614046    2.010573
     21          1           0        1.834551   -2.096531   -1.610194
     22          1           0        1.225556   -0.613929   -2.010540
 ---------------------------------------------------------------------

 SCF Done:  E(UB3LYP) =  -571.003370010     A.U. after   30 cycles

 The electronic state is 2-A.
 Alpha  occ. eigenvalues --  -19.05380 -19.05379 -14.20904 -14.20904 -10.16239
 Alpha  occ. eigenvalues --  -10.16216 -10.13297 -10.13247 -10.07387 -10.07386
 Alpha  occ. eigenvalues --  -10.07171 -10.07118  -0.99181  -0.95140  -0.81195
 Alpha  occ. eigenvalues --   -0.79582  -0.74958  -0.65258  -0.65132  -0.60068
 Alpha  occ. eigenvalues --   -0.55996  -0.52162  -0.46803  -0.45380  -0.43757
 Alpha  occ. eigenvalues --   -0.42668  -0.39659  -0.39561  -0.36123  -0.34980
 Alpha  occ. eigenvalues --   -0.34309  -0.33874  -0.31973  -0.30773  -0.29742
 Alpha  occ. eigenvalues --   -0.27132  -0.26823  -0.25946  -0.23260  -0.20915
 Alpha  occ. eigenvalues --   -0.17843  -0.17323  -0.14213  -0.12020   0.04743
 Alpha virt. eigenvalues --    0.06756   0.06977   0.07973   0.08700   0.09222
 Alpha virt. eigenvalues --    0.09456   0.09942   0.10174   0.11348   0.11511
 Alpha virt. eigenvalues --    0.13170   0.14668   0.15532   0.16228   0.17420

  Beta  occ. eigenvalues --  -19.05376 -19.05376 -14.20869 -14.20869 -10.16227
  Beta  occ. eigenvalues --  -10.16204 -10.13294 -10.13243 -10.07376 -10.07375
  Beta  occ. eigenvalues --  -10.07156 -10.07103  -0.99171  -0.95134  -0.81149
  Beta  occ. eigenvalues --   -0.79522  -0.74932  -0.65235  -0.65086  -0.60012
  Beta  occ. eigenvalues --   -0.55965  -0.52129  -0.46760  -0.45352  -0.43723
  Beta  occ. eigenvalues --   -0.42594  -0.39620  -0.39529  -0.36070  -0.34937
  Beta  occ. eigenvalues --   -0.34286  -0.33839  -0.31933  -0.30735  -0.29728
  Beta  occ. eigenvalues --   -0.27103  -0.26788  -0.25921  -0.23242  -0.20895
  Beta  occ. eigenvalues --   -0.17810  -0.17288  -0.14201  -0.12012
  Beta virt. eigenvalues --    0.07050   0.07824   0.08037   0.08435   0.09024
  Beta virt. eigenvalues --    0.09813   0.09903   0.10179   0.10604   0.12004
  Beta virt. eigenvalues --    0.12018   0.13642   0.14656   0.15707   0.16254

 Mulliken charges and spin densities:
               1          2
     1  C    1.263366  -1.571620
     2  C    1.263256  -1.571480
     3  C   -3.274725   2.527993
     4  C    1.913548  -1.378629
     5  C    1.913246  -1.378512
     6  C   -3.274642   2.527923
     7  O   -0.067470   0.032375
     8  C    1.276530  -1.560862
     9  C    1.275305  -1.560048
    10  O   -0.067462   0.032370
    11  N   -0.417571   0.160988
    12  N   -0.417693   0.161098
    13  H   -0.554047   0.718046
    14  H   -0.554053   0.718054
    15  H   -0.474830   0.661233
    16  H   -0.474823   0.661222
    17  H   -0.087327   0.305565
    18  H   -0.087452   0.305690
    19  H   -0.314597   0.579987
    20  H    0.237974   0.024368
    21  H   -0.314487   0.579863
    22  H    0.237953   0.024376
 Sum of Mulliken charges =  -1.00000   1.00000

 Dipole moment (field-independent basis, Debye):
    X=              1.7020    Y=             -0.0007    Z=             -0.0005  Tot=              1.7020
 Quadrupole moment (field-independent basis, Debye-Ang):
   XX=           -136.2392   YY=           -113.0678   ZZ=           -101.8726
   XY=             -0.0011   XZ=             -0.0005   YZ=             -3.8399

 Summary of Natural Population Analysis:

                                       Natural Population
                Natural  -----------------------------------------------
    Atom  No    Charge         Core      Valence    Rydberg      Total
 -----------------------------------------------------------------------
      C    1   -0.10649      0.99957     2.09622    0.01070     3.10649
      C    2   -0.10649      0.99957     2.09622    0.01070     3.10649
      C    3   -0.11216      0.99952     2.10258    0.01006     3.11216
      C    4    0.11845      0.99933     1.86620    0.01602     2.88155
      C    5    0.11845      0.99933     1.86619    0.01602     2.88155
      C    6   -0.11216      0.99952     2.10258    0.01006     3.11216
      O    7   -0.28927      0.99987     3.27902    0.01038     4.28927
      C    8    0.13181      0.99955     1.85042    0.01821     2.86819
      C    9    0.13181      0.99955     1.85042    0.01821     2.86819
      O   10   -0.28928      0.99987     3.27902    0.01038     4.28928
      N   11   -0.41721      0.99975     2.90830    0.00917     3.91721
      N   12   -0.41721      0.99975     2.90830    0.00917     3.91721
      H   13    0.10269      0.00000     0.39553    0.00178     0.39731
      H   14    0.10269      0.00000     0.39553    0.00178     0.39731
      H   15    0.10683      0.00000     0.39154    0.00162     0.39317
      H   16    0.10683      0.00000     0.39154    0.00162     0.39317
      H   17    0.09927      0.00000     0.39926    0.00147     0.40073
      H   18    0.09927      0.00000     0.39926    0.00147     0.40073
      H   19    0.18378      0.00000     0.31330    0.00293     0.31622
      H   20    0.18231      0.00000     0.31521    0.00248     0.31769
      H   21    0.18378      0.00000     0.31330    0.00292     0.31622
      H   22    0.18231      0.00000     0.31521    0.00248     0.31769
 =======================================================================
   * Total *   -0.00000     11.99519    31.83514    0.16966    44.00000

 Normal termination of Gaussian 16 at Wed Dec  9 17:23:56 2020.
