 Gaussian 16, Revision A.03,

 -----------------------------------------------------------
 # opt freq B3LYP/6-31G(d) empiricaldispersion=gd3bj scf=xqc
 -----------------------------------------------------------

 ------------------------------
 CID_63359894_JID_4235_neutraal
 ------------------------------
 Symbolic Z-matrix:
 Charge =  0 Multiplicity = 1

 SCF Done:  E(RB3LYP) =  -629.594069361     A.U. after   14 cycles
 SCF Done:  E(RB3LYP) =  -629.597697081     A.U. after   12 cycles
 SCF Done:  E(RB3LYP) =  -629.598173913     A.U. after   11 cycles
 SCF Done:  E(RB3LYP) =  -629.598342163     A.U. after   12 cycles
 SCF Done:  E(RB3LYP) =  -629.598416223     A.U. after   10 cycles
 SCF Done:  E(RB3LYP) =  -629.598526094     A.U. after   12 cycles
 SCF Done:  E(RB3LYP) =  -629.598579188     A.U. after   12 cycles
 SCF Done:  E(RB3LYP) =  -629.598585085     A.U. after   10 cycles
 SCF Done:  E(RB3LYP) =  -629.598586999     A.U. after   10 cycles
 SCF Done:  E(RB3LYP) =  -629.598587125     A.U. after    7 cycles
 Optimization completed.
    -- Stationary point found.
 Normal termination of Gaussian 16 at Thu Dec 10 09:19:15 2020.

 --------------------------------------------------------------------
 #N Geom=AllCheck Guess=TCheck SCRF=Check GenChk RB3LYP/6-31G(d) Freq
 --------------------------------------------------------------------

 Structure from the checkpoint file:  "JID_4235.chk"
 ------------------------------
 CID_63359894_JID_4235_neutraal
 ------------------------------
 Charge =  0 Multiplicity = 1

 SCF Done:  E(RB3LYP) =  -629.598587125     A.U. after    1 cycles

  Exact polarizability: 140.519  16.447 107.579   1.119  -9.396 111.830
 Approx polarizability: 178.052  33.378 163.746   5.623 -14.355 198.959

                      1                      2                      3
                      A                      A                      A
 Frequencies --     32.8756                39.8056                53.7131
 Red. masses --      4.0894                 4.8540                 4.6024
 Frc consts  --      0.0026                 0.0045                 0.0078
 IR Inten    --      0.2804                 0.2448                 0.0157

                      4                      5                      6
                      A                      A                      A
 Frequencies --    128.8899               155.5006               226.3260
 Red. masses --      2.9208                 4.7706                 3.3781
 Frc consts  --      0.0286                 0.0680                 0.1020
 IR Inten    --      0.0569                 0.2244                 3.6080

                      7                      8                      9
                      A                      A                      A
 Frequencies --    231.4704               254.2791               309.7028
 Red. masses --      2.3755                 2.4656                 2.6696
 Frc consts  --      0.0750                 0.0939                 0.1509
 IR Inten    --      3.2494                 2.6396                 1.0710

                     10                     11                     12
                      A                      A                      A
 Frequencies --    364.6000               407.9540               429.6306
 Red. masses --      2.3810                 2.9837                 4.3844
 Frc consts  --      0.1865                 0.2926                 0.4768
 IR Inten    --      6.7724                 8.8142                 8.4813

                     13                     14                     15
                      A                      A                      A
 Frequencies --    445.6261               456.5480               476.0692
 Red. masses --      3.2474                 2.0918                 4.4103
 Frc consts  --      0.3800                 0.2569                 0.5889
 IR Inten    --      4.6206                 4.2754                 4.5534

                     16                     17                     18
                      A                      A                      A
 Frequencies --    524.7996               579.8486               623.2136
 Red. masses --      3.6318                 2.1346                 5.4652
 Frc consts  --      0.5893                 0.4229                 1.2506
 IR Inten    --      0.1648                 0.6792                 6.2962

                     19                     20                     21
                      A                      A                      A
 Frequencies --    661.0457               766.2867               779.8710
 Red. masses --      4.1262                 2.1555                 3.0464
 Frc consts  --      1.0623                 0.7457                 1.0916
 IR Inten    --      7.1240                66.1072                20.7686

                     22                     23                     24
                      A                      A                      A
 Frequencies --    831.3960               839.0468               870.1941
 Red. masses --      2.3588                 1.4886                 2.7285
 Frc consts  --      0.9606                 0.6174                 1.2173
 IR Inten    --     11.3781                16.9884                15.0048

                     25                     26                     27
                      A                      A                      A
 Frequencies --    877.2022               890.2541               933.5967
 Red. masses --      1.4571                 2.3262                 2.3913
 Frc consts  --      0.6606                 1.0862                 1.2280
 IR Inten    --     10.0816                10.1585                16.1047

                     28                     29                     30
                      A                      A                      A
 Frequencies --    949.9283               971.2938               982.0068
 Red. masses --      1.4567                 1.9492                 1.7243
 Frc consts  --      0.7745                 1.0835                 0.9797
 IR Inten    --      3.0397                10.4551                 5.0757

                     31                     32                     33
                      A                      A                      A
 Frequencies --    989.1625              1011.2726              1039.3382
 Red. masses --      1.6233                 1.6244                 5.1786
 Frc consts  --      0.9358                 0.9788                 3.2959
 IR Inten    --      3.9810                 8.6062                25.8375

                     34                     35                     36
                      A                      A                      A
 Frequencies --   1046.0902              1089.9374              1114.7846
 Red. masses --      1.8321                 2.6401                 2.6065
 Frc consts  --      1.1812                 1.8479                 1.9085
 IR Inten    --     11.6226                 9.9760                 1.7241

                     37                     38                     39
                      A                      A                      A
 Frequencies --   1124.5770              1141.5566              1157.9475
 Red. masses --      3.3269                 3.3654                 2.8438
 Frc consts  --      2.4790                 2.5839                 2.2466
 IR Inten    --     58.3885                60.0929                70.7337

                     40                     41                     42
                      A                      A                      A
 Frequencies --   1189.0384              1207.9723              1219.2827
 Red. masses --      2.3869                 1.6255                 1.5571
 Frc consts  --      1.9882                 1.3975                 1.3639
 IR Inten    --      7.8358                 6.5255                16.1554

                     43                     44                     45
                      A                      A                      A
 Frequencies --   1237.0260              1254.4563              1261.5706
 Red. masses --      2.5218                 2.1741                 2.2739
 Frc consts  --      2.2736                 2.0158                 2.1322
 IR Inten    --     16.2827                13.4525                 7.4046

                     46                     47                     48
                      A                      A                      A
 Frequencies --   1284.9015              1319.9477              1333.8779
 Red. masses --      1.3809                 1.2568                 1.2944
 Frc consts  --      1.3432                 1.2901                 1.3569
 IR Inten    --      1.5058                 4.9330                 7.6731

                     49                     50                     51
                      A                      A                      A
 Frequencies --   1339.4591              1354.5881              1361.3594
 Red. masses --      1.3689                 1.2340                 1.2206
 Frc consts  --      1.4470                 1.3341                 1.3328
 IR Inten    --      9.4359                 3.8507                 1.7439

                     52                     53                     54
                      A                      A                      A
 Frequencies --   1391.3292              1394.0819              1397.0839
 Red. masses --      1.3036                 1.3653                 1.3759
 Frc consts  --      1.4868                 1.5633                 1.5823
 IR Inten    --      9.3486                 0.7486                 3.9871

                     55                     56                     57
                      A                      A                      A
 Frequencies --   1422.8444              1441.1376              1448.2339
 Red. masses --      1.4023                 1.3979                 1.8662
 Frc consts  --      1.6726                 1.7106                 2.3061
 IR Inten    --      8.8898                 5.2330                27.7579

                     58                     59                     60
                      A                      A                      A
 Frequencies --   1497.6405              1509.0140              1515.5735
 Red. masses --      1.1108                 1.0903                 1.1254
 Frc consts  --      1.4679                 1.4628                 1.5230
 IR Inten    --      4.9927                 3.8636                 0.6249

                     61                     62                     63
                      A                      A                      A
 Frequencies --   1519.9522              1523.0297              1533.7457
 Red. masses --      1.1037                 1.9644                 1.1356
 Frc consts  --      1.5022                 2.6848                 1.5740
 IR Inten    --      2.1098                 5.0757                 9.2935

                     64                     65                     66
                      A                      A                      A
 Frequencies --   1534.7496              1593.8807              1631.3880
 Red. masses --      1.2047                 8.2974                 5.0328
 Frc consts  --      1.6719                12.4195                 7.8918
 IR Inten    --     35.2587                 5.7510                 1.6822

                     67                     68                     69
                      A                      A                      A
 Frequencies --   2968.5587              2977.2850              3012.9035
 Red. masses --      1.0721                 1.0714                 1.0714
 Frc consts  --      5.5667                 5.5957                 5.7301
 IR Inten    --     38.3953                60.9583                16.7505

                     70                     71                     72
                      A                      A                      A
 Frequencies --   3021.8768              3035.1689              3045.2819
 Red. masses --      1.0687                 1.0821                 1.0604
 Frc consts  --      5.7498                 5.8733                 5.7942
 IR Inten    --     38.6155                36.9488                39.1851

                     73                     74                     75
                      A                      A                      A
 Frequencies --   3086.5156              3089.9317              3098.9611
 Red. masses --      1.1023                 1.0942                 1.0944
 Frc consts  --      6.1872                 6.1553                 6.1925
 IR Inten    --     45.6839                17.1727                40.2396

                     76                     77                     78
                      A                      A                      A
 Frequencies --   3107.7457              3118.5908              3172.4735
 Red. masses --      1.0926                 1.0925                 1.0908
 Frc consts  --      6.2176                 6.2601                 6.4686
 IR Inten    --     55.2326                37.3900                26.1248

                     79                     80                     81
                      A                      A                      A
 Frequencies --   3177.5385              3197.3439              3489.3959
 Red. masses --      1.0876                 1.0970                 1.0728
 Frc consts  --      6.4698                 6.6072                 7.6958
 IR Inten    --      4.8169                36.8292                 2.5736

 - Thermochemistry -
 -------------------
 Temperature   298.150 Kelvin.  Pressure   1.00000 Atm.
 Atom     1 has atomic number  6 and mass  12.00000

 Molecular mass:   193.12151 amu.
 Principal axes and moments of inertia in atomic units:
                           1         2         3
     Eigenvalues --  1250.461364781.854855256.45241
           X            1.00000   0.00138   0.00258
           Y           -0.00124   0.99869  -0.05119
           Z           -0.00265   0.05119   0.99869
 This molecule is an asymmetric top.
 Rotational symmetry number  1.
 Warning -- assumption of classical behavior for rotation
           may cause significant error
 Rotational temperatures (Kelvin)      0.06927     0.01811     0.01648
 Rotational constants (GHZ):           1.44326     0.37741     0.34334
 Zero-point vibrational energy     658690.1 (Joules/Mol)
                                  157.43070 (Kcal/Mol)
 Warning -- explicit consideration of  17 degrees of freedom as
           vibrations may cause significant error
 Vibrational temperatures:     47.30    57.27    77.28   185.44   223.73
          (Kelvin)            325.63   333.03   365.85   445.59   524.58
                              586.95   618.14   641.16   656.87   684.96
                              755.07   834.27   896.67   951.10  1102.52
                             1122.06  1196.19  1207.20  1252.02  1262.10
                             1280.88  1343.24  1366.73  1397.48  1412.89
                             1423.18  1455.00  1495.38  1505.09  1568.18
                             1603.93  1618.02  1642.45  1666.03  1710.76
                             1738.00  1754.28  1779.80  1804.88  1815.12
                             1848.69  1899.11  1919.15  1927.18  1948.95
                             1958.69  2001.81  2005.77  2010.09  2047.16
                             2073.48  2083.69  2154.77  2171.13  2180.57
                             2186.87  2191.30  2206.72  2208.16  2293.24
                             2347.20  4271.09  4283.65  4334.90  4347.81
                             4366.93  4381.48  4440.81  4445.72  4458.71
                             4471.35  4486.96  4564.48  4571.77  4600.26
                             5020.46

 Zero-point correction=                           0.250882 (Hartree/Particle)
 Thermal correction to Energy=                    0.262995
 Thermal correction to Enthalpy=                  0.263939
 Thermal correction to Gibbs Free Energy=         0.210983
 Sum of electronic and zero-point Energies=           -629.347705
 Sum of electronic and thermal Energies=              -629.335592
 Sum of electronic and thermal Enthalpies=            -629.334648
 Sum of electronic and thermal Free Energies=         -629.387604

                     E (Thermal)             CV                S
                      KCal/Mol        Cal/Mol-Kelvin    Cal/Mol-Kelvin
 Total                  165.032             47.016            111.455
 Electronic               0.000              0.000              0.000
 Translational            0.889              2.981             41.680
 Rotational               0.889              2.981             31.819
 Vibrational            163.255             41.054             37.956
 Vibration     1          0.594              1.983              5.648
 Vibration     2          0.594              1.981              5.269
 Vibration     3          0.596              1.976              4.676
 Vibration     4          0.611              1.924              2.963
 Vibration     5          0.620              1.897              2.604
 Vibration     6          0.650              1.801              1.908
 Vibration     7          0.653              1.793              1.868
 Vibration     8          0.665              1.756              1.701
 Vibration     9          0.699              1.655              1.364
 Vibration    10          0.738              1.545              1.102
 Vibration    11          0.773              1.453              0.934
 Vibration    12          0.791              1.406              0.860
 Vibration    13          0.805              1.371              0.809
 Vibration    14          0.815              1.346              0.776
 Vibration    15          0.833              1.303              0.721
 Vibration    16          0.880              1.195              0.599
 Vibration    17          0.936              1.075              0.486

 Optimization completed.
    -- Stationary point found.
 Normal termination of Gaussian 16 at Thu Dec 10 09:27:24 2020.

 ----------------------------------------------------------------------
 # B3LYP/6-311++G(d,p) empiricaldispersion=gd3bj scf=xqc pop=npa geom=c
 heck
 ----------------------------------------------------------------------

 --------------------------------------
 CID_63359894_JID_4235_Energie_neutraal
 --------------------------------------
 Structure from the checkpoint file:  "JID_4235.chk"
 Charge =  0 Multiplicity = 1

 SCF Done:  E(RB3LYP) =  -629.771637493     A.U. after   14 cycles
 Normal termination of Gaussian 16 at Thu Dec 10 09:30:57 2020.

 ----------------------------------------------------------------------
 # B3LYP/6-311++G(d,p) empiricaldispersion=gd3bj scf=xqc pop=npa geom=c
 heck
 ----------------------------------------------------------------------

 ------------------------------------
 CID_63359894_JID_4235_Energie_kation
 ------------------------------------
 Structure from the checkpoint file:  "JID_4235.chk"
 Charge =  1 Multiplicity = 2

 SCF Done:  E(UB3LYP) =  -629.475673346     A.U. after   22 cycles
 Normal termination of Gaussian 16 at Thu Dec 10 09:38:48 2020.
 Gaussian 16:  ES64L-G16RevA.03 25-Dec-2016

 ----------------------------------------------------------------------
 # B3LYP/6-311++G(d,p) empiricaldispersion=gd3bj scf=xqc pop=npa geom=c
 heck
 ----------------------------------------------------------------------

 -----------------------------------
 CID_63359894_JID_4235_Energie_anion
 -----------------------------------
 Structure from the checkpoint file:  "JID_4235.chk"
 Charge = -1 Multiplicity = 2

                         Standard orientation:
 ---------------------------------------------------------------------
 Center     Atomic      Atomic             Coordinates (Angstroms)
 Number     Number       Type             X           Y           Z
 ---------------------------------------------------------------------
      1          6           0        3.836625   -0.068203    0.068968
      2          6           0        2.776009    0.927982    0.553075
      3          6           0        1.471099    0.769775   -0.237106
      4          6           0        1.052520   -0.715099   -0.224748
      5          8           0        2.080379   -1.558628   -0.726327
      6          6           0        3.262269   -1.483945    0.059454
      7          7           0        0.482034    1.714223    0.283037
      8          6           0       -0.769857    1.812926   -0.453796
      9          6           0       -1.791142    0.723718   -0.167526
     10          7           0       -1.870130    0.288474    1.098273
     11          6           0       -2.777456   -0.657864    1.355763
     12          6           0       -3.608852   -1.174823    0.361465
     13          7           0       -3.540257   -0.748768   -0.904709
     14          6           0       -2.632067    0.198114   -1.156716
     15          1           0        4.151556    0.190170   -0.950125
     16          1           0        4.728359   -0.029440    0.707326
     17          1           0        2.562879    0.741830    1.617356
     18          1           0        3.126124    1.962553    0.475622
     19          1           0        1.664199    1.044552   -1.283710
     20          1           0        0.779132   -1.006810    0.804883
     21          1           0        0.184212   -0.892398   -0.864618
     22          1           0        3.962930   -2.199888   -0.380373
     23          1           0        3.044961   -1.807920    1.093036
     24          1           0        0.265148    1.489292    1.253518
     25          1           0       -1.236414    2.777926   -0.207156
     26          1           0       -0.549976    1.841501   -1.527047
     27          1           0       -2.841766   -1.015290    2.381424
     28          1           0       -4.339990   -1.947843    0.586650
     29          1           0       -2.560811    0.547799   -2.185393
 ---------------------------------------------------------------------

 SCF Done:  E(UB3LYP) =  -629.775156983     A.U. after   33 cycles
 SCF Done:  E(UB3LYP) =  -629.775156983     a.u. after    1 cycles

 The electronic state is 2-A.
 Alpha  occ. eigenvalues --  -19.01656 -14.17806 -14.14475 -14.14280 -10.11335
 Alpha  occ. eigenvalues --  -10.09306 -10.08641 -10.07388 -10.06916 -10.06380
 Alpha  occ. eigenvalues --  -10.05829 -10.05213 -10.05158 -10.04937  -0.93049
 Alpha  occ. eigenvalues --   -0.82044  -0.79098  -0.74326  -0.68967  -0.65109
 Alpha  occ. eigenvalues --   -0.62300  -0.55907  -0.53832  -0.51670  -0.49908
 Alpha  occ. eigenvalues --   -0.47153  -0.46442  -0.39841  -0.37884  -0.36611
 Alpha  occ. eigenvalues --   -0.36260  -0.35550  -0.34121  -0.33920  -0.32774
 Alpha  occ. eigenvalues --   -0.31295  -0.29062  -0.28445  -0.27682  -0.26898
 Alpha  occ. eigenvalues --   -0.26248  -0.24507  -0.23774  -0.23373  -0.22157
 Alpha  occ. eigenvalues --   -0.20262  -0.17840  -0.15958  -0.15034  -0.11963
 Alpha  occ. eigenvalues --   -0.10860  -0.09030   0.04882
 Alpha virt. eigenvalues --    0.06280   0.08539   0.08706   0.09207   0.10104
 Alpha virt. eigenvalues --    0.10643   0.10756   0.11801   0.12120   0.12539
 Alpha virt. eigenvalues --    0.12885   0.13094   0.13887   0.14767   0.14984

  Beta  occ. eigenvalues --  -19.01657 -14.17800 -14.13890 -14.13638 -10.11323
  Beta  occ. eigenvalues --  -10.09297 -10.08638 -10.07394 -10.06901 -10.06374
  Beta  occ. eigenvalues --  -10.05797 -10.05198 -10.05091 -10.04879  -0.93045
  Beta  occ. eigenvalues --   -0.81372  -0.78959  -0.73299  -0.68933  -0.65029
  Beta  occ. eigenvalues --   -0.62034  -0.55750  -0.53810  -0.51459  -0.49512
  Beta  occ. eigenvalues --   -0.46844  -0.46351  -0.39806  -0.37826  -0.36479
  Beta  occ. eigenvalues --   -0.36046  -0.35430  -0.34069  -0.33787  -0.32621
  Beta  occ. eigenvalues --   -0.31216  -0.28920  -0.28385  -0.27607  -0.26494
  Beta  occ. eigenvalues --   -0.25551  -0.24216  -0.23644  -0.23192  -0.21997
  Beta  occ. eigenvalues --   -0.20229  -0.15950  -0.14941  -0.14241  -0.11067
  Beta  occ. eigenvalues --   -0.10603  -0.08452
  Beta virt. eigenvalues --    0.06914   0.08537   0.08898   0.09190   0.10037
  Beta virt. eigenvalues --    0.10722   0.10804   0.11473   0.11768   0.12056
  Beta virt. eigenvalues --    0.12591   0.12962   0.13015   0.13921   0.14723

 Mulliken charges and spin densities:
               1          2
     1  C    0.008391  -0.355133
     2  C   -0.154173   0.147986
     3  C   -0.728983  -0.022575
     4  C   -0.327338  -0.154907
     5  O   -0.117992   0.018299
     6  C    0.271269  -0.523843
     7  N    0.175333  -0.017755
     8  C   -0.786165  -0.008818
     9  C    0.409926  -0.034528
    10  N   -0.119527   0.254598
    11  C   -0.098772   0.179735
    12  C   -0.214153  -0.011736
    13  N   -0.113080   0.272313
    14  C   -0.401053   0.130444
    15  H    0.141525  -0.012984
    16  H   -0.387260   0.539491
    17  H    0.067208   0.059344
    18  H    0.107207   0.066280
    19  H    0.062943   0.094035
    20  H    0.159468   0.029488
    21  H    0.343444  -0.050711
    22  H   -0.192910   0.370243
    23  H    0.083474   0.005634
    24  H    0.236239  -0.009614
    25  H    0.112954   0.053849
    26  H    0.127566  -0.018781
    27  H    0.108796   0.003605
    28  H    0.110329  -0.004138
    29  H    0.115334   0.000181
 Sum of Mulliken charges =  -1.00000   1.00000

 Dipole moment (field-independent basis, Debye):
    X=              2.7359    Y=              1.6030    Z=              0.3149  Tot=              3.1866
 Quadrupole moment (field-independent basis, Debye-Ang):
   XX=           -152.6604   YY=           -107.0885   ZZ=           -100.2158
   XY=             -0.0408   XZ=             -5.1954   YZ=             -6.5282

 Summary of Natural Population Analysis:

                                       Natural Population
                Natural  -----------------------------------------------
    Atom  No    Charge         Core      Valence    Rydberg      Total
 -----------------------------------------------------------------------
      C    1   -0.20533      0.99963     2.19676    0.00894     3.20533
      C    2   -0.19351      0.99961     2.18220    0.01171     3.19351
      C    3   -0.01917      0.99958     2.00744    0.01214     3.01917
      C    4   -0.02134      0.99956     2.00975    0.01203     3.02134
      O    5   -0.30124      0.99989     3.29218    0.00917     4.30124
      C    6   -0.01068      0.99958     1.99653    0.01456     3.01068
      N    7   -0.34470      0.99974     2.83218    0.01278     3.84470
      C    8   -0.09654      0.99959     2.08512    0.01182     3.09654
      C    9    0.07434      0.99954     1.91183    0.01430     2.92566
      N   10   -0.17448      0.99967     2.66020    0.01461     3.67448
      C   11    0.01533      0.99960     1.97145    0.01361     2.98467
      C   12   -0.01193      0.99960     1.99740    0.01493     3.01193
      N   13   -0.14324      0.99971     2.62913    0.01440     3.64324
      C   14    0.00434      0.99953     1.98240    0.01372     2.99566
      H   15    0.09501      0.00000     0.40381    0.00118     0.40499
      H   16    0.09879      0.00000     0.39980    0.00142     0.40121
      H   17    0.09235      0.00000     0.40616    0.00149     0.40765
      H   18    0.10229      0.00000     0.39625    0.00146     0.39771
      H   19    0.08691      0.00000     0.41112    0.00197     0.41309
      H   20    0.08128      0.00000     0.41713    0.00159     0.41872
      H   21    0.10201      0.00000     0.39646    0.00153     0.39799
      H   22    0.08912      0.00000     0.40965    0.00124     0.41088
      H   23    0.07446      0.00000     0.42422    0.00132     0.42554
      H   24    0.18098      0.00000     0.31566    0.00337     0.31902
      H   25    0.09495      0.00000     0.40361    0.00145     0.40505
      H   26    0.09096      0.00000     0.40797    0.00107     0.40904
      H   27    0.07947      0.00000     0.41916    0.00137     0.42053
      H   28    0.08000      0.00000     0.41856    0.00145     0.42000
      H   29    0.07958      0.00000     0.41890    0.00153     0.42042
 =======================================================================
   * Total *   -0.00000     13.99485    37.80302    0.20213    52.00000

 Normal termination of Gaussian 16 at Thu Dec 10 09:50:38 2020.
