 Gaussian 16, Revision A.03,

 -----------------------------------------------------------
 # opt freq B3LYP/6-31G(d) empiricaldispersion=gd3bj scf=xqc
 -----------------------------------------------------------

 -------------------------------
 CID_151634202_JID_1076_neutraal
 -------------------------------
 Symbolic Z-matrix:
 Charge =  0 Multiplicity = 1

 SCF Done:  E(RB3LYP) =  -897.806842125     A.U. after   15 cycles
 SCF Done:  E(RB3LYP) =  -897.817511167     A.U. after   13 cycles
 SCF Done:  E(RB3LYP) =  -897.819381487     A.U. after   13 cycles
 SCF Done:  E(RB3LYP) =  -897.819326681     A.U. after   13 cycles
 SCF Done:  E(RB3LYP) =  -897.820134866     A.U. after   13 cycles
 SCF Done:  E(RB3LYP) =  -897.820202420     A.U. after   12 cycles
 SCF Done:  E(RB3LYP) =  -897.820332460     A.U. after   11 cycles
 SCF Done:  E(RB3LYP) =  -897.820368952     A.U. after   12 cycles
 SCF Done:  E(RB3LYP) =  -897.820382440     A.U. after   10 cycles
 SCF Done:  E(RB3LYP) =  -897.820386400     A.U. after   10 cycles
 SCF Done:  E(RB3LYP) =  -897.820387661     A.U. after    9 cycles
 SCF Done:  E(RB3LYP) =  -897.820387963     A.U. after    9 cycles
 SCF Done:  E(RB3LYP) =  -897.820388071     A.U. after    8 cycles
 SCF Done:  E(RB3LYP) =  -897.820388140     A.U. after    7 cycles
 Optimization completed.
    -- Stationary point found.
 Normal termination of Gaussian 16 at Tue Dec  8 19:13:53 2020.

 --------------------------------------------------------------------
 #N Geom=AllCheck Guess=TCheck SCRF=Check GenChk RB3LYP/6-31G(d) Freq
 --------------------------------------------------------------------

 Structure from the checkpoint file:  "JID_1076.chk"
 -------------------------------
 CID_151634202_JID_1076_neutraal
 -------------------------------
 Charge =  0 Multiplicity = 1

 SCF Done:  E(RB3LYP) =  -897.820388140     A.U. after    1 cycles

  Exact polarizability: 123.516  -1.385  93.406  -6.906   8.656  86.100
 Approx polarizability: 155.202   0.820 162.475 -12.901  20.843 138.891

                      1                      2                      3
                      A                      A                      A
 Frequencies --     31.6718                51.7471                63.2314
 Red. masses --      4.4034                 3.1654                 6.3051
 Frc consts  --      0.0026                 0.0050                 0.0149
 IR Inten    --      3.1225                 0.8974                 1.4186

                      4                      5                      6
                      A                      A                      A
 Frequencies --    128.2508               142.3431               198.7158
 Red. masses --      2.7551                 4.2740                 2.1628
 Frc consts  --      0.0267                 0.0510                 0.0503
 IR Inten    --      0.7139                 1.6711                 0.3411

                      7                      8                      9
                      A                      A                      A
 Frequencies --    210.7916               231.8083               234.0826
 Red. masses --      2.2848                 1.7352                 2.2389
 Frc consts  --      0.0598                 0.0549                 0.0723
 IR Inten    --      4.8763                 3.6776                 6.2260

                     10                     11                     12
                      A                      A                      A
 Frequencies --    249.5539               273.5569               296.1441
 Red. masses --      1.2102                 1.7843                 2.3313
 Frc consts  --      0.0444                 0.0787                 0.1205
 IR Inten    --      1.8860                 2.4668                 2.2942

                     13                     14                     15
                      A                      A                      A
 Frequencies --    329.2730               352.4057               362.9102
 Red. masses --      3.1592                 4.4701                 2.5249
 Frc consts  --      0.2018                 0.3271                 0.1959
 IR Inten    --      3.2357                 2.5804                 4.1625

                     16                     17                     18
                      A                      A                      A
 Frequencies --    424.1698               481.3565               492.6286
 Red. masses --      2.7709                 3.4756                 1.9159
 Frc consts  --      0.2937                 0.4745                 0.2739
 IR Inten    --      1.3158                 7.6767                17.1101

                     19                     20                     21
                      A                      A                      A
 Frequencies --    521.5991               547.1117               576.6340
 Red. masses --      3.8783                 5.2668                 4.2653
 Frc consts  --      0.6217                 0.9289                 0.8356
 IR Inten    --     37.6498                 2.4670                18.8580

                     22                     23                     24
                      A                      A                      A
 Frequencies --    717.3198               797.5369               817.7677
 Red. masses --      6.2029                 3.1215                 4.1080
 Frc consts  --      1.8805                 1.1698                 1.6186
 IR Inten    --    160.6674                 2.6383                23.0388

                     25                     26                     27
                      A                      A                      A
 Frequencies --    901.2679               957.3235               964.6641
 Red. masses --      6.6539                 1.6423                 1.5540
 Frc consts  --      3.1845                 0.8868                 0.8520
 IR Inten    --     25.0283                 1.4797                 0.9224

                     28                     29                     30
                      A                      A                      A
 Frequencies --    988.3640               999.2213              1031.8800
 Red. masses --      1.2074                 1.3729                 1.1958
 Frc consts  --      0.6949                 0.8076                 0.7502
 IR Inten    --      0.0765                21.4528                76.5539

                     31                     32                     33
                      A                      A                      A
 Frequencies --   1033.8653              1048.8871              1052.9537
 Red. masses --      1.3832                 1.4445                 1.4443
 Frc consts  --      0.8711                 0.9363                 0.9435
 IR Inten    --    118.9626                 9.2238                 2.1234

                     34                     35                     36
                      A                      A                      A
 Frequencies --   1161.0453              1220.2926              1260.0061
 Red. masses --     14.2633                 2.0104                 2.6974
 Frc consts  --     11.3284                 1.7639                 2.5231
 IR Inten    --    151.7042                64.2613                 7.2234

                     37                     38                     39
                      A                      A                      A
 Frequencies --   1275.8250              1279.2914              1320.9830
 Red. masses --      2.8365                 4.5145                 1.3153
 Frc consts  --      2.7203                 4.3531                 1.3523
 IR Inten    --      2.5088               327.1881                 2.8900

                     40                     41                     42
                      A                      A                      A
 Frequencies --   1425.1230              1430.5308              1456.0030
 Red. masses --      1.2281                 1.2231                 1.2290
 Frc consts  --      1.4696                 1.4747                 1.5351
 IR Inten    --     11.3776                 9.3358                28.1910

                     43                     44                     45
                      A                      A                      A
 Frequencies --   1457.6559              1505.1131              1513.1282
 Red. masses --      1.2165                 1.0454                 1.0476
 Frc consts  --      1.5230                 1.3953                 1.4132
 IR Inten    --      4.1569                 0.4988                 4.4325

                     46                     47                     48
                      A                      A                      A
 Frequencies --   1521.0493              1529.9254              1534.3255
 Red. masses --      1.0481                 1.0508                 1.0490
 Frc consts  --      1.4287                 1.4492                 1.4550
 IR Inten    --      0.3845                 6.4605                 7.4032

                     49                     50                     51
                      A                      A                      A
 Frequencies --   1549.0251              1703.5219              1798.5369
 Red. masses --      1.0530                 4.4883                11.1923
 Frc consts  --      1.4887                 7.6742                21.3309
 IR Inten    --     16.6511                11.8534               224.1035

                     52                     53                     54
                      A                      A                      A
 Frequencies --   3050.4957              3057.2835              3061.4533
 Red. masses --      1.0358                 1.0374                 1.0380
 Frc consts  --      5.6791                 5.7131                 5.7317
 IR Inten    --     15.1932                12.3812                24.7093

                     55                     56                     57
                      A                      A                      A
 Frequencies --   3115.4498              3122.8360              3128.8527
 Red. masses --      1.1021                 1.1009                 1.0986
 Frc consts  --      6.3024                 6.3258                 6.3369
 IR Inten    --     10.3060                20.9315                11.4917

                     58                     59                     60
                      A                      A                      A
 Frequencies --   3140.4834              3150.2090              3153.6036
 Red. masses --      1.1021                 1.1018                 1.1027
 Frc consts  --      6.4042                 6.4421                 6.4611
 IR Inten    --     10.3649                 8.1456                20.1870

                     61                     62                     63
                      A                      A                      A
 Frequencies --   3180.6414              3213.3419              3270.6985
 Red. masses --      1.0588                 1.0943                 1.1166
 Frc consts  --      6.3108                 6.6571                 7.0374
 IR Inten    --      4.8370                 4.7874                 5.5951

 - Thermochemistry -
 -------------------
 Temperature   298.150 Kelvin.  Pressure   1.00000 Atm.
 Atom     1 has atomic number  6 and mass  12.00000

 Molecular mass:   176.05072 amu.
 Principal axes and moments of inertia in atomic units:
                           1         2         3
     Eigenvalues --  1120.531942883.393213004.33697
           X            0.99974  -0.02288  -0.00246
           Y            0.02300   0.99632   0.08254
           Z            0.00056  -0.08257   0.99658
 This molecule is an asymmetric top.
 Rotational symmetry number  1.
 Warning -- assumption of classical behavior for rotation
           may cause significant error
 Rotational temperatures (Kelvin)      0.07730     0.03004     0.02883
 Rotational constants (GHZ):           1.61061     0.62591     0.60071
 Zero-point vibrational energy     485072.4 (Joules/Mol)
                                  115.93508 (Kcal/Mol)
 Warning -- explicit consideration of  21 degrees of freedom as
           vibrations may cause significant error
 Vibrational temperatures:     45.57    74.45    90.98   184.52   204.80
          (Kelvin)            285.91   303.28   333.52   336.79   359.05
                              393.59   426.09   473.75   507.03   522.15
                              610.29   692.56   708.78   750.46   787.17
                              829.65  1032.06  1147.48  1176.59  1296.72
                             1377.38  1387.94  1422.04  1437.66  1484.65
                             1487.50  1509.11  1514.97  1670.49  1755.73
                             1812.87  1835.63  1840.61  1900.60  2050.43
                             2058.21  2094.86  2097.24  2165.52  2177.05
                             2188.45  2201.22  2207.55  2228.70  2450.99
                             2587.69  4388.98  4398.75  4404.75  4482.44
                             4493.06  4501.72  4518.46  4532.45  4537.33
                             4576.23  4623.28  4705.81

 Zero-point correction=                           0.184754 (Hartree/Particle)
 Thermal correction to Energy=                    0.198088
 Thermal correction to Enthalpy=                  0.199032
 Thermal correction to Gibbs Free Energy=         0.144585
 Sum of electronic and zero-point Energies=           -897.635634
 Sum of electronic and thermal Energies=              -897.622300
 Sum of electronic and thermal Enthalpies=            -897.621356
 Sum of electronic and thermal Free Energies=         -897.675803

                     E (Thermal)             CV                S
                      KCal/Mol        Cal/Mol-Kelvin    Cal/Mol-Kelvin
 Total                  124.302             47.693            114.594
 Electronic               0.000              0.000              0.000
 Translational            0.889              2.981             41.404
 Rotational               0.889              2.981             30.652
 Vibrational            122.525             41.732             42.538
 Vibration     1          0.594              1.983              5.722
 Vibration     2          0.596              1.977              4.749
 Vibration     3          0.597              1.972              4.354
 Vibration     4          0.611              1.925              2.972
 Vibration     5          0.616              1.911              2.772
 Vibration     6          0.637              1.842              2.145
 Vibration     7          0.643              1.824              2.037
 Vibration     8          0.653              1.792              1.865
 Vibration     9          0.654              1.789              1.847
 Vibration    10          0.662              1.764              1.734
 Vibration    11          0.676              1.722              1.574
 Vibration    12          0.690              1.681              1.439
 Vibration    13          0.712              1.617              1.264
 Vibration    14          0.729              1.570              1.155
 Vibration    15          0.737              1.549              1.110
 Vibration    16          0.786              1.418              0.878
 Vibration    17          0.838              1.291              0.706
 Vibration    18          0.848              1.266              0.677
 Vibration    19          0.877              1.202              0.606
 Vibration    20          0.902              1.146              0.550
 Vibration    21          0.933              1.082              0.492

                           ! Non-Optimized Parameters !
 Normal termination of Gaussian 16 at Tue Dec  8 19:18:31 2020.

 ----------------------------------------------------------------------
 # B3LYP/6-311++G(d,p) empiricaldispersion=gd3bj scf=xqc pop=npa geom=c
 heck
 ----------------------------------------------------------------------

 ---------------------------------------
 CID_151634202_JID_1076_Energie_neutraal
 ---------------------------------------
 Structure from the checkpoint file:  "JID_1076.chk"
 Charge =  0 Multiplicity = 1

 SCF Done:  E(RB3LYP) =  -897.998240841     A.U. after   15 cycles
 Normal termination of Gaussian 16 at Tue Dec  8 19:20:43 2020.

 ----------------------------------------------------------------------
 # B3LYP/6-311++G(d,p) empiricaldispersion=gd3bj scf=xqc pop=npa geom=c
 heck
 ----------------------------------------------------------------------

 -------------------------------------
 CID_151634202_JID_1076_Energie_kation
 -------------------------------------
 Structure from the checkpoint file:  "JID_1076.chk"
 Charge =  1 Multiplicity = 2

 SCF Done:  E(UB3LYP) =  -897.664458362     A.U. after   26 cycles
 Normal termination of Gaussian 16 at Tue Dec  8 19:25:57 2020.
 Gaussian 16:  ES64L-G16RevA.03 25-Dec-2016

 ----------------------------------------------------------------------
 # B3LYP/6-311++G(d,p) empiricaldispersion=gd3bj scf=xqc pop=npa geom=c
 heck
 ----------------------------------------------------------------------

 ------------------------------------
 CID_151634202_JID_1076_Energie_anion
 ------------------------------------
 Structure from the checkpoint file:  "JID_1076.chk"
 Charge = -1 Multiplicity = 2

                         Standard orientation:
 ---------------------------------------------------------------------
 Center     Atomic      Atomic             Coordinates (Angstroms)
 Number     Number       Type             X           Y           Z
 ---------------------------------------------------------------------
      1          6           0       -3.081855    0.334528    0.179768
      2          6           0       -1.670115    0.356309   -0.423316
      3          6           0       -1.606359   -0.445616   -1.720567
      4          6           0       -1.152626    1.786995   -0.578522
      5         16           0       -0.622962   -0.502330    0.874448
      6          8           0       -0.991935   -1.942556    0.821873
      7          8           0        0.877270   -0.398515   -0.059443
      8          6           0        1.823071    0.457772    0.423006
      9          8           0        1.599806    1.309016    1.258985
     10          6           0        3.147878    0.251445   -0.206001
     11          6           0        3.425850   -0.730257   -1.067533
     12          1           0       -3.774750    0.828049   -0.510657
     13          1           0       -3.122876    0.871285    1.134987
     14          1           0       -3.427102   -0.690938    0.340045
     15          1           0       -2.323245   -0.030995   -2.438808
     16          1           0       -0.607430   -0.401714   -2.161959
     17          1           0       -1.862368   -1.493194   -1.538249
     18          1           0       -1.055913    2.294321    0.387099
     19          1           0       -0.179684    1.809583   -1.074963
     20          1           0       -1.859808    2.356521   -1.192400
     21          1           0        3.894423    0.974575    0.108625
     22          1           0        4.419382   -0.840609   -1.491976
     23          1           0        2.670579   -1.450222   -1.365238
 ---------------------------------------------------------------------

 SCF Done:  E(UB3LYP) =  -898.004160020     A.U. after   29 cycles

 The electronic state is 2-A.
 Alpha  occ. eigenvalues --  -88.84680 -19.01738 -18.98032 -18.93696 -10.12130
 Alpha  occ. eigenvalues --  -10.10060 -10.06624 -10.05693 -10.05505 -10.01344
 Alpha  occ. eigenvalues --  -10.00457  -7.92119  -5.88508  -5.88206  -5.87659
 Alpha  occ. eigenvalues --   -0.95224  -0.90606  -0.84808  -0.72120  -0.62800
 Alpha  occ. eigenvalues --   -0.59255  -0.58810  -0.56708  -0.47929  -0.43870
 Alpha  occ. eigenvalues --   -0.40565  -0.37183  -0.34551  -0.34019  -0.33856
 Alpha  occ. eigenvalues --   -0.32022  -0.30189  -0.29953  -0.29406  -0.28072
 Alpha  occ. eigenvalues --   -0.26998  -0.26612  -0.25652  -0.24441  -0.23822
 Alpha  occ. eigenvalues --   -0.23039  -0.22115  -0.18145  -0.17295  -0.13474
 Alpha  occ. eigenvalues --   -0.12811  -0.11266   0.05082
 Alpha virt. eigenvalues --    0.06789   0.08977   0.09946   0.10042   0.10499
 Alpha virt. eigenvalues --    0.10920   0.12422   0.12632   0.13349   0.13750
 Alpha virt. eigenvalues --    0.13850   0.14883   0.15824   0.16460   0.16910

  Beta  occ. eigenvalues --  -88.84634 -19.01651 -18.97947 -18.93354 -10.11837
  Beta  occ. eigenvalues --  -10.10057 -10.06599 -10.05681 -10.05497 -10.01271
  Beta  occ. eigenvalues --  -10.00010  -7.92073  -5.88409  -5.88151  -5.87628
  Beta  occ. eigenvalues --   -0.94914  -0.90300  -0.84350  -0.72085  -0.62127
  Beta  occ. eigenvalues --   -0.59210  -0.58782  -0.56400  -0.47114  -0.43458
  Beta  occ. eigenvalues --   -0.40319  -0.37043  -0.34481  -0.33894  -0.33699
  Beta  occ. eigenvalues --   -0.31556  -0.30004  -0.29544  -0.29186  -0.27789
  Beta  occ. eigenvalues --   -0.26848  -0.26463  -0.25224  -0.24217  -0.23796
  Beta  occ. eigenvalues --   -0.22769  -0.21828  -0.17604  -0.16416  -0.12935
  Beta  occ. eigenvalues --   -0.11063  -0.10898
  Beta virt. eigenvalues --    0.07180   0.09180   0.09911   0.10087   0.10644
  Beta virt. eigenvalues --    0.11103   0.11769   0.12399   0.12591   0.13264
  Beta virt. eigenvalues --    0.13729   0.13917   0.14877   0.15812   0.16429

 Mulliken charges and spin densities:
               1          2
     1  C    0.036274  -0.545995
     2  C   -0.408414   0.426747
     3  C   -0.246461  -0.232604
     4  C   -0.371201  -0.180391
     5  S    0.644702  -0.058762
     6  O   -0.389416   0.014869
     7  O   -0.005746   0.003393
     8  C   -0.221245   0.195546
     9  O   -0.326624   0.112516
    10  C    0.172908  -0.019344
    11  C   -0.746309   0.477336
    12  H   -0.159495   0.297973
    13  H   -0.050515   0.202652
    14  H    0.119154   0.037972
    15  H    0.029025   0.098004
    16  H    0.167436   0.016132
    17  H    0.152800   0.008045
    18  H    0.129328   0.046708
    19  H    0.160423   0.015591
    20  H   -0.011473   0.135350
    21  H    0.136613  -0.006429
    22  H    0.078592  -0.021588
    23  H    0.109642  -0.023721
 Sum of Mulliken charges =  -1.00000   1.00000

 Dipole moment (field-independent basis, Debye):
    X=             -3.8231    Y=              0.8189    Z=             -1.5470  Tot=              4.2048
 Quadrupole moment (field-independent basis, Debye-Ang):
   XX=           -114.0153   YY=            -97.1561   ZZ=            -91.6197
   XY=              0.3314   XZ=             -0.1695   YZ=             -0.9727

 Summary of Natural Population Analysis:

                                       Natural Population
                Natural  -----------------------------------------------
    Atom  No    Charge         Core      Valence    Rydberg      Total
 -----------------------------------------------------------------------
      C    1   -0.29842      0.99961     2.29076    0.00805     3.29842
      C    2   -0.12069      0.99958     2.10451    0.01660     3.12069
      C    3   -0.29863      0.99960     2.29082    0.00820     3.29863
      C    4   -0.29727      0.99961     2.28921    0.00846     3.29727
      S    5    0.72475      4.99934     2.21975    0.05616     7.27525
      O    6   -0.45505      0.99993     3.44885    0.00627     4.45505
      O    7   -0.35607      0.99988     3.34667    0.00952     4.35607
      C    8    0.41604      0.99967     1.55887    0.02542     2.58396
      O    9   -0.29258      0.99987     3.28723    0.00548     4.29258
      C   10   -0.15318      0.99952     2.14353    0.01013     3.15318
      C   11   -0.07634      0.99960     2.06866    0.00808     3.07634
      H   12    0.10168      0.00000     0.39705    0.00127     0.39832
      H   13    0.10254      0.00000     0.39624    0.00122     0.39746
      H   14    0.10760      0.00000     0.39140    0.00100     0.39240
      H   15    0.09670      0.00000     0.40241    0.00089     0.40330
      H   16    0.11210      0.00000     0.38692    0.00097     0.38790
      H   17    0.11094      0.00000     0.38813    0.00093     0.38906
      H   18    0.10999      0.00000     0.38899    0.00102     0.39001
      H   19    0.11194      0.00000     0.38710    0.00096     0.38806
      H   20    0.09745      0.00000     0.40151    0.00104     0.40255
      H   21    0.09106      0.00000     0.40791    0.00103     0.40894
      H   22    0.07621      0.00000     0.42262    0.00117     0.42379
      H   23    0.08922      0.00000     0.40979    0.00099     0.41078
 =======================================================================
   * Total *    0.00000     14.99621    31.82895    0.17484    47.00000

 Normal termination of Gaussian 16 at Tue Dec  8 19:31:53 2020.
