 Gaussian 16, Revision A.03,

 -----------------------------------------------------------
 # opt freq B3LYP/6-31G(d) empiricaldispersion=gd3bj scf=xqc
 -----------------------------------------------------------

 -------------------------------
 CID_104522690_JID_2008_neutraal
 -------------------------------
 Symbolic Z-matrix:
 Charge =  0 Multiplicity = 1

 SCF Done:  E(RB3LYP) =  -955.566861941     A.U. after   14 cycles
 SCF Done:  E(RB3LYP) =  -955.571904505     A.U. after   12 cycles
 SCF Done:  E(RB3LYP) =  -955.573095908     A.U. after   12 cycles
 SCF Done:  E(RB3LYP) =  -955.573422979     A.U. after   12 cycles
 SCF Done:  E(RB3LYP) =  -955.573935858     A.U. after   11 cycles
 SCF Done:  E(RB3LYP) =  -955.574051958     A.U. after   11 cycles
 SCF Done:  E(RB3LYP) =  -955.574098842     A.U. after   11 cycles
 SCF Done:  E(RB3LYP) =  -955.574115277     A.U. after   10 cycles
 SCF Done:  E(RB3LYP) =  -955.574123672     A.U. after   10 cycles
 SCF Done:  E(RB3LYP) =  -955.574127954     A.U. after    8 cycles
 SCF Done:  E(RB3LYP) =  -955.574128855     A.U. after    8 cycles
 SCF Done:  E(RB3LYP) =  -955.574129034     A.U. after    7 cycles
 SCF Done:  E(RB3LYP) =  -955.574129087     A.U. after    7 cycles
 Optimization completed.
    -- Stationary point found.
 Normal termination of Gaussian 16 at Wed Dec  9 16:46:57 2020.

 --------------------------------------------------------------------
 #N Geom=AllCheck Guess=TCheck SCRF=Check GenChk RB3LYP/6-31G(d) Freq
 --------------------------------------------------------------------

 Structure from the checkpoint file:  "JID_2008.chk"
 -------------------------------
 CID_104522690_JID_2008_neutraal
 -------------------------------
 Charge =  0 Multiplicity = 1

 SCF Done:  E(RB3LYP) =  -955.574129087     A.U. after    1 cycles

  Exact polarizability: 120.259  -1.039 101.138   2.853   0.355  97.089
 Approx polarizability: 152.248   4.015 154.599   0.648   4.041 150.335

                      1                      2                      3
                      A                      A                      A
 Frequencies --     40.9708                63.7334                79.7680
 Red. masses --      4.2771                 4.6417                 3.2945
 Frc consts  --      0.0042                 0.0111                 0.0124
 IR Inten    --      1.7812                 0.7309                 2.1200

                      4                      5                      6
                      A                      A                      A
 Frequencies --    112.2749               151.0707               179.3117
 Red. masses --      3.8501                 3.0726                 1.6798
 Frc consts  --      0.0286                 0.0413                 0.0318
 IR Inten    --      0.3885                 3.2050                 2.2963

                      7                      8                      9
                      A                      A                      A
 Frequencies --    195.3484               218.8502               227.9031
 Red. masses --      1.5985                 1.7311                 2.1125
 Frc consts  --      0.0359                 0.0489                 0.0646
 IR Inten    --      1.7695                25.1178                17.1243

                     10                     11                     12
                      A                      A                      A
 Frequencies --    237.5061               250.1363               267.0507
 Red. masses --      1.2175                 1.9920                 2.7840
 Frc consts  --      0.0405                 0.0734                 0.1170
 IR Inten    --      2.6435                 2.5364                 4.0607

                     13                     14                     15
                      A                      A                      A
 Frequencies --    277.1290               282.0599               316.0528
 Red. masses --      3.7004                 1.2297                 3.5345
 Frc consts  --      0.1674                 0.0576                 0.2080
 IR Inten    --      1.8475                 4.4532                 4.4775

                     16                     17                     18
                      A                      A                      A
 Frequencies --    326.3844               361.0118               387.4462
 Red. masses --      2.8725                 1.1207                 2.7597
 Frc consts  --      0.1803                 0.0861                 0.2441
 IR Inten    --      4.6328               131.8278                 9.3816

                     19                     20                     21
                      A                      A                      A
 Frequencies --    408.5254               450.7653               491.6340
 Red. masses --      3.4682                 5.1742                 3.5666
 Frc consts  --      0.3410                 0.6194                 0.5079
 IR Inten    --      6.7281                24.6503                33.8869

                     22                     23                     24
                      A                      A                      A
 Frequencies --    510.1092               569.1213               650.0612
 Red. masses --      5.2728                 3.0528                 3.8825
 Frc consts  --      0.8084                 0.5826                 0.9667
 IR Inten    --     16.4436                12.4740                 5.8163

                     25                     26                     27
                      A                      A                      A
 Frequencies --    684.6478               769.2843               827.8406
 Red. masses --      2.7750                 3.8215                 2.3926
 Frc consts  --      0.7664                 1.3325                 0.9661
 IR Inten    --      6.7008                58.2461                 4.0358

                     28                     29                     30
                      A                      A                      A
 Frequencies --    845.3305               863.1927               943.5477
 Red. masses --      1.3338                 2.3868                 1.8271
 Frc consts  --      0.5615                 1.0478                 0.9584
 IR Inten    --    114.9493                 1.6475                16.9697

                     31                     32                     33
                      A                      A                      A
 Frequencies --    966.2475               989.8759               993.9978
 Red. masses --      1.7951                 1.7831                 1.4784
 Frc consts  --      0.9875                 1.0294                 0.8606
 IR Inten    --     15.0123                17.0557                33.8710

                     34                     35                     36
                      A                      A                      A
 Frequencies --   1004.1115              1030.3145              1063.0350
 Red. masses --      1.4024                 1.6018                 1.8303
 Frc consts  --      0.8331                 1.0018                 1.2186
 IR Inten    --     23.8434                25.8489                 9.4563

                     37                     38                     39
                      A                      A                      A
 Frequencies --   1083.4418              1094.0513              1111.6103
 Red. masses --      1.7945                 2.9678                 1.5956
 Frc consts  --      1.2411                 2.0929                 1.1616
 IR Inten    --     17.5036                53.4979                11.8631

                     40                     41                     42
                      A                      A                      A
 Frequencies --   1119.4901              1145.0769              1162.5526
 Red. masses --      3.5698                 2.3761                 1.8454
 Frc consts  --      2.6359                 1.8357                 1.4695
 IR Inten    --    122.8126                10.2069                 8.9183

                     43                     44                     45
                      A                      A                      A
 Frequencies --   1239.8018              1262.4462              1301.3342
 Red. masses --      1.3599                 1.5480                 1.5537
 Frc consts  --      1.2316                 1.4537                 1.5502
 IR Inten    --      5.2427                16.3763                71.8688

                     46                     47                     48
                      A                      A                      A
 Frequencies --   1303.2285              1320.1697              1352.3800
 Red. masses --      3.6592                 1.5383                 1.4957
 Frc consts  --      3.6617                 1.5797                 1.6118
 IR Inten    --    106.3952                11.0140                19.1150

                     49                     50                     51
                      A                      A                      A
 Frequencies --   1360.4534              1371.2222              1373.8771
 Red. masses --      1.2540                 1.2668                 1.3794
 Frc consts  --      1.3674                 1.4034                 1.5341
 IR Inten    --      5.7142                 5.3166                12.6546

                     52                     53                     54
                      A                      A                      A
 Frequencies --   1410.5931              1428.6538              1434.4828
 Red. masses --      1.4136                 1.2908                 1.2339
 Frc consts  --      1.6572                 1.5523                 1.4960
 IR Inten    --      9.8798                 8.1297                14.1258

                     55                     56                     57
                      A                      A                      A
 Frequencies --   1445.8133              1459.7738              1475.7232
 Red. masses --      1.2767                 1.2091                 1.0557
 Frc consts  --      1.5724                 1.5181                 1.3546
 IR Inten    --      1.5529                37.2709                 4.8272

                     58                     59                     60
                      A                      A                      A
 Frequencies --   1496.9724              1525.6378              1528.4673
 Red. masses --      1.0501                 1.0719                 1.0519
 Frc consts  --      1.3865                 1.4699                 1.4478
 IR Inten    --      6.6306                 0.8382                10.2086

                     61                     62                     63
                      A                      A                      A
 Frequencies --   1537.5371              1541.2661              1544.7787
 Red. masses --      1.0461                 1.0502                 1.0533
 Frc consts  --      1.4570                 1.4699                 1.4809
 IR Inten    --      4.1236                12.9964                 2.8550

                     64                     65                     66
                      A                      A                      A
 Frequencies --   1700.3591              2963.1787              2993.8615
 Red. masses --      1.0894                 1.0740                 1.0826
 Frc consts  --      1.8558                 5.5561                 5.7171
 IR Inten    --     29.8740                76.2996                54.3601

                     67                     68                     69
                      A                      A                      A
 Frequencies --   3050.8856              3060.0348              3089.5712
 Red. masses --      1.0368                 1.0377                 1.0297
 Frc consts  --      5.6857                 5.7250                 5.7913
 IR Inten    --     19.9576                17.8207                 2.6865

                     70                     71                     72
                      A                      A                      A
 Frequencies --   3092.4109              3112.7129              3114.2579
 Red. masses --      1.0841                 1.0920                 1.0970
 Frc consts  --      6.1084                 6.2337                 6.2683
 IR Inten    --      2.1746                22.1623                32.9710

                     73                     74                     75
                      A                      A                      A
 Frequencies --   3121.6588              3127.6973              3133.9331
 Red. masses --      1.1011                 1.1017                 1.0866
 Frc consts  --      6.3221                 6.3501                 6.2875
 IR Inten    --     20.5093                21.8690                 0.9889

                     76                     77                     78
                      A                      A                      A
 Frequencies --   3156.6353              3184.5790              3213.9726
 Red. masses --      1.1002                 1.1061                 1.1074
 Frc consts  --      6.4588                 6.6092                 6.7398
 IR Inten    --      4.3575                 2.0174                 2.2714

                     79                     80                     81
                      A                      A                      A
 Frequencies --   3492.7806              3577.3964              3726.3621
 Red. masses --      1.0500                 1.0931                 1.0657
 Frc consts  --      7.5470                 8.2421                 8.7185
 IR Inten    --      0.2705                 0.2254                 8.7796

 - Thermochemistry -
 -------------------
 Temperature   298.150 Kelvin.  Pressure   1.00000 Atm.
 Atom     1 has atomic number  6 and mass  12.00000

 Molecular mass:   195.09292 amu.
 Principal axes and moments of inertia in atomic units:
                           1         2         3
     Eigenvalues --  1310.912483814.327173950.61422
           X            0.99966  -0.00253   0.02592
           Y            0.00394   0.99851  -0.05444
           Z           -0.02575   0.05452   0.99818
 This molecule is an asymmetric top.
 Rotational symmetry number  1.
 Warning -- assumption of classical behavior for rotation
           may cause significant error
 Rotational temperatures (Kelvin)      0.06607     0.02271     0.02192
 Rotational constants (GHZ):           1.37671     0.47315     0.45683
 Zero-point vibrational energy     660211.7 (Joules/Mol)
                                  157.79438 (Kcal/Mol)
 Warning -- explicit consideration of  23 degrees of freedom as
           vibrations may cause significant error
 Vibrational temperatures:     58.95    91.70   114.77   161.54   217.36
          (Kelvin)            257.99   281.06   314.88   327.90   341.72
                              359.89   384.23   398.73   405.82   454.73
                              469.59   519.42   557.45   587.78   648.55
                              707.35   733.93   818.84   935.29   985.06
                             1106.83  1191.08  1216.24  1241.94  1357.55
                             1390.21  1424.21  1430.14  1444.69  1482.39
                             1529.47  1558.83  1574.10  1599.36  1610.70
                             1647.51  1672.65  1783.80  1816.38  1872.33
                             1875.06  1899.43  1945.77  1957.39  1972.88
                             1976.70  2029.53  2055.51  2063.90  2080.20
                             2100.29  2123.24  2153.81  2195.05  2199.12
                             2212.17  2217.54  2222.59  2446.44  4263.35
                             4307.50  4389.54  4402.71  4445.20  4449.29
                             4478.50  4480.72  4491.37  4500.06  4509.03
                             4541.69  4581.90  4624.19  5025.33  5147.08
                             5361.40

 Zero-point correction=                           0.251461 (Hartree/Particle)
 Thermal correction to Energy=                    0.266390
 Thermal correction to Enthalpy=                  0.267334
 Thermal correction to Gibbs Free Energy=         0.210248
 Sum of electronic and zero-point Energies=           -955.322668
 Sum of electronic and thermal Energies=              -955.307740
 Sum of electronic and thermal Enthalpies=            -955.306795
 Sum of electronic and thermal Free Energies=         -955.363882

                     E (Thermal)             CV                S
                      KCal/Mol        Cal/Mol-Kelvin    Cal/Mol-Kelvin
 Total                  167.162             55.194            120.148
 Electronic               0.000              0.000              0.000
 Translational            0.889              2.981             41.710
 Rotational               0.889              2.981             31.358
 Vibrational            165.384             49.233             47.080
 Vibration     1          0.594              1.981              5.212
 Vibration     2          0.597              1.972              4.338
 Vibration     3          0.600              1.963              3.897
 Vibration     4          0.607              1.939              3.229
 Vibration     5          0.618              1.901              2.659
 Vibration     6          0.629              1.868              2.336
 Vibration     7          0.636              1.846              2.176
 Vibration     8          0.647              1.812              1.969
 Vibration     9          0.651              1.798              1.895
 Vibration    10          0.656              1.783              1.821
 Vibration    11          0.663              1.763              1.730
 Vibration    12          0.672              1.734              1.615
 Vibration    13          0.678              1.716              1.551
 Vibration    14          0.681              1.707              1.521
 Vibration    15          0.703              1.643              1.330
 Vibration    16          0.710              1.623              1.278
 Vibration    17          0.735              1.553              1.118
 Vibration    18          0.756              1.497              1.010
 Vibration    19          0.773              1.452              0.932
 Vibration    20          0.810              1.359              0.793
 Vibration    21          0.847              1.269              0.679
 Vibration    22          0.865              1.228              0.633
 Vibration    23          0.925              1.098              0.506

 Optimization completed.
    -- Stationary point found.
 Normal termination of Gaussian 16 at Wed Dec  9 16:53:50 2020.

 ----------------------------------------------------------------------
 # B3LYP/6-311++G(d,p) empiricaldispersion=gd3bj scf=xqc pop=npa geom=c
 heck
 ----------------------------------------------------------------------

 ---------------------------------------
 CID_104522690_JID_2008_Energie_neutraal
 ---------------------------------------
 Structure from the checkpoint file:  "JID_2008.chk"
 Charge =  0 Multiplicity = 1

 SCF Done:  E(RB3LYP) =  -955.783889578     A.U. after   15 cycles
 Normal termination of Gaussian 16 at Wed Dec  9 16:56:41 2020.

 ----------------------------------------------------------------------
 # B3LYP/6-311++G(d,p) empiricaldispersion=gd3bj scf=xqc pop=npa geom=c
 heck
 ----------------------------------------------------------------------

 -------------------------------------
 CID_104522690_JID_2008_Energie_kation
 -------------------------------------
 Structure from the checkpoint file:  "JID_2008.chk"
 Charge =  1 Multiplicity = 2

 SCF Done:  E(UB3LYP) =  -955.456083295     A.U. after   27 cycles
 Normal termination of Gaussian 16 at Wed Dec  9 17:03:40 2020.
 Gaussian 16:  ES64L-G16RevA.03 25-Dec-2016

 ----------------------------------------------------------------------
 # B3LYP/6-311++G(d,p) empiricaldispersion=gd3bj scf=xqc pop=npa geom=c
 heck
 ----------------------------------------------------------------------

 ------------------------------------
 CID_104522690_JID_2008_Energie_anion
 ------------------------------------
 Structure from the checkpoint file:  "JID_2008.chk"
 Charge = -1 Multiplicity = 2

                         Standard orientation:
 ---------------------------------------------------------------------
 Center     Atomic      Atomic             Coordinates (Angstroms)
 Number     Number       Type             X           Y           Z
 ---------------------------------------------------------------------
      1          6           0       -2.259375    1.415980   -1.072510
      2          6           0       -2.061680    0.627011    0.228490
      3          6           0       -3.214636   -0.372301    0.446618
      4          7           0       -3.305761   -1.318543   -0.668019
      5          6           0       -0.715865   -0.124199    0.284642
      6          6           0        0.494161    0.754236   -0.074149
      7          6           0        0.812649    1.867275    0.921327
      8         16           0        1.985708   -0.258010   -0.436432
      9          8           0        1.566134   -1.338226   -1.345989
     10          8           0        3.045114    0.684737   -0.842029
     11          6           0        2.492459   -1.012382    1.123874
     12          8           0       -0.542821   -0.740321    1.568429
     13          1           0       -2.097859    0.774623   -1.945826
     14          1           0       -1.577076    2.268057   -1.149923
     15          1           0       -3.280069    1.812932   -1.125671
     16          1           0       -2.090786    1.338505    1.070180
     17          1           0       -3.007725   -0.945342    1.354578
     18          1           0       -4.142188    0.200538    0.622839
     19          1           0       -3.834678   -2.140777   -0.390122
     20          1           0       -3.805256   -0.903164   -1.450773
     21          1           0       -0.765365   -0.955079   -0.422405
     22          1           0        0.334509    1.186270   -1.067802
     23          1           0        0.972393    1.472841    1.930702
     24          1           0        1.713552    2.405379    0.618611
     25          1           0       -0.016225    2.581910    0.964198
     26          1           0        2.807358   -0.229871    1.816405
     27          1           0        1.655421   -1.582602    1.524519
     28          1           0        3.338814   -1.655985    0.873844
     29          1           0       -0.669505   -0.053520    2.242649
 ---------------------------------------------------------------------

 SCF Done:  E(UB3LYP) =  -955.778327388     A.U. after   25 cycles

 The electronic state is 2-A.
 Alpha  occ. eigenvalues --  -88.94173 -19.02616 -19.01216 -19.01200 -14.19399
 Alpha  occ. eigenvalues --  -10.12619 -10.11590 -10.10649 -10.08732 -10.07815
 Alpha  occ. eigenvalues --  -10.07620 -10.06587  -8.00706  -5.96965  -5.96859
 Alpha  occ. eigenvalues --   -5.96795  -1.00396  -0.92996  -0.90069  -0.78610
 Alpha  occ. eigenvalues --   -0.72496  -0.68450  -0.66303  -0.59522  -0.57650
 Alpha  occ. eigenvalues --   -0.54968  -0.48273  -0.47426  -0.41722  -0.40492
 Alpha  occ. eigenvalues --   -0.39876  -0.38773  -0.37514  -0.36997  -0.34803
 Alpha  occ. eigenvalues --   -0.33846  -0.33608  -0.32834  -0.31915  -0.30800
 Alpha  occ. eigenvalues --   -0.30042  -0.29786  -0.27677  -0.27055  -0.24902
 Alpha  occ. eigenvalues --   -0.24192  -0.23112  -0.22139  -0.22079  -0.20290
 Alpha  occ. eigenvalues --   -0.19389  -0.17946  -0.14501   0.03972
 Alpha virt. eigenvalues --    0.06257   0.07502   0.07861   0.08889   0.09653
 Alpha virt. eigenvalues --    0.09961   0.10693   0.11475   0.12208   0.12434
 Alpha virt. eigenvalues --    0.12725   0.13162   0.13560   0.14342   0.15125

  Beta  occ. eigenvalues --  -88.94172 -19.02575 -19.01213 -19.01196 -14.19371
  Beta  occ. eigenvalues --  -10.12615 -10.11585 -10.10626 -10.08702 -10.07793
  Beta  occ. eigenvalues --  -10.07561 -10.06560  -8.00705  -5.96965  -5.96858
  Beta  occ. eigenvalues --   -5.96793  -1.00390  -0.92914  -0.90062  -0.78556
  Beta  occ. eigenvalues --   -0.72459  -0.68406  -0.66260  -0.59443  -0.57573
  Beta  occ. eigenvalues --   -0.54916  -0.48228  -0.47348  -0.41687  -0.40453
  Beta  occ. eigenvalues --   -0.39820  -0.38724  -0.37485  -0.36970  -0.34738
  Beta  occ. eigenvalues --   -0.33817  -0.33566  -0.32804  -0.31875  -0.30749
  Beta  occ. eigenvalues --   -0.29992  -0.29742  -0.27633  -0.27012  -0.24858
  Beta  occ. eigenvalues --   -0.24134  -0.23102  -0.22107  -0.22058  -0.20279
  Beta  occ. eigenvalues --   -0.19361  -0.17917  -0.14463
  Beta virt. eigenvalues --    0.06540   0.07189   0.08203   0.08552   0.09465
  Beta virt. eigenvalues --    0.10215   0.10531   0.11251   0.11809   0.12475
  Beta virt. eigenvalues --    0.12614   0.12900   0.13487   0.14088   0.14593

 Mulliken charges and spin densities:
               1          2
     1  C    0.088289  -0.871509
     2  C   -1.514991   2.162084
     3  C    1.649808  -2.377137
     4  N   -0.459768   0.103516
     5  C    1.736365  -2.387486
     6  C   -2.478449   2.099208
     7  C    1.493443  -2.083917
     8  S    0.449127   0.013568
     9  O   -0.163153   0.003241
    10  O   -0.162026  -0.006937
    11  C   -0.220685  -0.454371
    12  O   -0.141627  -0.032101
    13  H    0.130197   0.028652
    14  H   -0.038944   0.176045
    15  H   -0.327097   0.491142
    16  H   -0.358141   0.563900
    17  H   -0.290330   0.470007
    18  H   -0.399667   0.556722
    19  H    0.075207   0.159585
    20  H    0.010986   0.206453
    21  H    0.383608  -0.061383
    22  H    0.210702   0.086666
    23  H   -0.461074   0.659352
    24  H   -0.048397   0.235345
    25  H   -0.255721   0.430423
    26  H   -0.018352   0.230372
    27  H    0.090168   0.161379
    28  H    0.184846   0.030763
    29  H   -0.164324   0.406418
 Sum of Mulliken charges =  -1.00000   1.00000

 Dipole moment (field-independent basis, Debye):
    X=              3.3526    Y=             -1.9745    Z=             -2.1779  Tot=              4.4589
 Quadrupole moment (field-independent basis, Debye-Ang):
   XX=           -145.6590   YY=           -120.4151   ZZ=           -124.3976
   XY=             -0.0657   XZ=              9.9696   YZ=             -8.1651

 Summary of Natural Population Analysis:

                                       Natural Population
                Natural  -----------------------------------------------
    Atom  No    Charge         Core      Valence    Rydberg      Total
 -----------------------------------------------------------------------
      C    1   -0.29298      0.99965     2.28658    0.00676     3.29298
      C    2   -0.12643      0.99958     2.11266    0.01419     3.12643
      C    3   -0.08657      0.99961     2.07488    0.01208     3.08657
      N    4   -0.42717      0.99977     2.91688    0.01052     3.92717
      C    5    0.05015      0.99948     1.93390    0.01647     2.94985
      C    6   -0.20593      0.99953     2.19087    0.01553     3.20593
      C    7   -0.30361      0.99963     2.29619    0.00780     3.30361
      S    8    1.02092      4.99925     1.88624    0.09359     6.97908
      O    9   -0.47175      0.99991     3.46651    0.00532     4.47175
      O   10   -0.47722      0.99991     3.47142    0.00588     4.47722
      C   11   -0.39564      0.99960     2.38833    0.00770     3.39564
      O   12   -0.37956      0.99990     3.37240    0.00726     4.37956
      H   13    0.10091      0.00000     0.39799    0.00110     0.39909
      H   14    0.10040      0.00000     0.39863    0.00098     0.39960
      H   15    0.10369      0.00000     0.39532    0.00099     0.39631
      H   16    0.10118      0.00000     0.39490    0.00392     0.39882
      H   17    0.10094      0.00000     0.39746    0.00160     0.39906
      H   18    0.08243      0.00000     0.41509    0.00248     0.41757
      H   19    0.17760      0.00000     0.32094    0.00146     0.32240
      H   20    0.17346      0.00000     0.32500    0.00155     0.32654
      H   21    0.11424      0.00000     0.38349    0.00227     0.38576
      H   22    0.11989      0.00000     0.37878    0.00132     0.38011
      H   23    0.10402      0.00000     0.39351    0.00246     0.39598
      H   24    0.11364      0.00000     0.38523    0.00113     0.38636
      H   25    0.11120      0.00000     0.38737    0.00143     0.38880
      H   26    0.11467      0.00000     0.38411    0.00122     0.38533
      H   27    0.12906      0.00000     0.36974    0.00120     0.37094
      H   28    0.11374      0.00000     0.38531    0.00095     0.38626
      H   29    0.23471      0.00000     0.25815    0.00714     0.26529
 =======================================================================
   * Total *   -0.00000     15.99581    36.76790    0.23629    53.00000

 Normal termination of Gaussian 16 at Wed Dec  9 17:10:24 2020.
