 Gaussian 16, Revision A.03,

 -----------------------------------------------------------
 # opt freq B3LYP/6-31G(d) empiricaldispersion=gd3bj scf=xqc
 -----------------------------------------------------------

 -------------------------------
 CID_141941872_JID_6039_neutraal
 -------------------------------
 Symbolic Z-matrix:
 Charge =  0 Multiplicity = 1

 SCF Done:  E(RB3LYP) =  -626.631318639     A.U. after   14 cycles
 SCF Done:  E(RB3LYP) =  -626.634320289     A.U. after   11 cycles
 SCF Done:  E(RB3LYP) =  -626.634647216     A.U. after   10 cycles
 SCF Done:  E(RB3LYP) =  -626.634763917     A.U. after   10 cycles
 SCF Done:  E(RB3LYP) =  -626.634819564     A.U. after    9 cycles
 SCF Done:  E(RB3LYP) =  -626.634885132     A.U. after   10 cycles
 SCF Done:  E(RB3LYP) =  -626.634973452     A.U. after   10 cycles
 SCF Done:  E(RB3LYP) =  -626.635064846     A.U. after    9 cycles
 SCF Done:  E(RB3LYP) =  -626.635110422     A.U. after   10 cycles
 SCF Done:  E(RB3LYP) =  -626.635137055     A.U. after    9 cycles
 SCF Done:  E(RB3LYP) =  -626.636253789     A.U. after    8 cycles
 SCF Done:  E(RB3LYP) =  -626.636255340     A.U. after    9 cycles
 SCF Done:  E(RB3LYP) =  -626.636255786     A.U. after    8 cycles
 SCF Done:  E(RB3LYP) =  -626.636255885     A.U. after    6 cycles
 SCF Done:  E(RB3LYP) =  -626.636255876     A.U. after    6 cycles
 Optimization completed.
    -- Stationary point found.
 Normal termination of Gaussian 16 at Thu Dec 10 22:01:12 2020.

 --------------------------------------------------------------------
 #N Geom=AllCheck Guess=TCheck SCRF=Check GenChk RB3LYP/6-31G(d) Freq
 --------------------------------------------------------------------

 Structure from the checkpoint file:  "JID_6039.chk"
 -------------------------------
 CID_141941872_JID_6039_neutraal
 -------------------------------
 Charge =  0 Multiplicity = 1

 SCF Done:  E(RB3LYP) =  -626.636255876     A.U. after    1 cycles

  Exact polarizability: 172.314   4.123 162.356 -14.601  15.284 155.974
 Approx polarizability: 223.045  -0.937 217.868 -24.069  24.760 254.665

                      1                      2                      3
                      A                      A                      A
 Frequencies --     25.9586                36.4554                42.8781
 Red. masses --      3.4102                 1.9795                 3.5305
 Frc consts  --      0.0014                 0.0015                 0.0038
 IR Inten    --      0.0299                 0.0417                 0.0161

                      4                      5                      6
                      A                      A                      A
 Frequencies --     77.5748                85.7401                88.9771
 Red. masses --      3.1940                 3.6869                 2.7407
 Frc consts  --      0.0113                 0.0160                 0.0128
 IR Inten    --      0.0249                 0.0880                 0.0364

                      7                      8                      9
                      A                      A                      A
 Frequencies --     97.0668               111.0497               129.8419
 Red. masses --      2.0982                 1.1206                 2.9847
 Frc consts  --      0.0116                 0.0081                 0.0296
 IR Inten    --      0.1318                 0.0254                 0.0394

                     10                     11                     12
                      A                      A                      A
 Frequencies --    161.8333               206.3504               226.0896
 Red. masses --      2.8757                 1.3763                 2.2417
 Frc consts  --      0.0444                 0.0345                 0.0675
 IR Inten    --      0.0285                 0.1075                 0.1813

                     13                     14                     15
                      A                      A                      A
 Frequencies --    246.7739               257.9877               290.1835
 Red. masses --      1.7922                 2.1814                 1.8656
 Frc consts  --      0.0643                 0.0855                 0.0926
 IR Inten    --      0.0150                 0.0356                 0.2224

                     16                     17                     18
                      A                      A                      A
 Frequencies --    306.0329               319.3307               330.3207
 Red. masses --      1.7221                 2.2141                 1.0340
 Frc consts  --      0.0950                 0.1330                 0.0665
 IR Inten    --      0.1481                 0.1757                 0.0286

                     19                     20                     21
                      A                      A                      A
 Frequencies --    336.7134               362.4765               374.7631
 Red. masses --      1.9118                 2.8796                 3.3531
 Frc consts  --      0.1277                 0.2229                 0.2775
 IR Inten    --      0.0295                 0.6438                 0.2322

                     22                     23                     24
                      A                      A                      A
 Frequencies --    385.0817               424.8216               465.4017
 Red. masses --      2.5223                 3.7291                 3.1651
 Frc consts  --      0.2204                 0.3965                 0.4039
 IR Inten    --      0.4435                 0.0103                 0.0165

                     25                     26                     27
                      A                      A                      A
 Frequencies --    499.7206               534.6299               558.6294
 Red. masses --      2.1694                 2.7761                 2.6328
 Frc consts  --      0.3192                 0.4675                 0.4841
 IR Inten    --      0.8386                 2.0438                 0.0582

                     28                     29                     30
                      A                      A                      A
 Frequencies --    590.7910               615.6756               708.0777
 Red. masses --      2.0619                 2.9651                 2.4381
 Frc consts  --      0.4240                 0.6622                 0.7202
 IR Inten    --      0.3839                 3.1515                 9.3169

                     31                     32                     33
                      A                      A                      A
 Frequencies --    730.4944               766.7491               785.6397
 Red. masses --      1.2927                 1.2421                 2.4609
 Frc consts  --      0.4064                 0.4302                 0.8949
 IR Inten    --      0.1162                 0.8257                 0.6742

                     34                     35                     36
                      A                      A                      A
 Frequencies --    808.0358               824.2680               834.6079
 Red. masses --      1.7224                 2.2481                 1.0564
 Frc consts  --      0.6626                 0.8999                 0.4335
 IR Inten    --      0.1727                 0.3054                 3.4727

                     37                     38                     39
                      A                      A                      A
 Frequencies --    838.7805               870.9607               891.4061
 Red. masses --      1.0564                 2.1464                 1.7229
 Frc consts  --      0.4379                 0.9593                 0.8066
 IR Inten    --      7.9608                 2.4469                 5.3779

                     40                     41                     42
                      A                      A                      A
 Frequencies --    898.8855               918.9186               922.0430
 Red. masses --      1.8774                 1.5530                 1.4022
 Frc consts  --      0.8937                 0.7726                 0.7023
 IR Inten    --      0.1582                 0.4676                72.2242

                     43                     44                     45
                      A                      A                      A
 Frequencies --    932.1090               936.9742               973.4211
 Red. masses --      1.7062                 1.4656                 2.2748
 Frc consts  --      0.8734                 0.7581                 1.2700
 IR Inten    --      1.1589                 2.6646                 0.4463

                     46                     47                     48
                      A                      A                      A
 Frequencies --    992.0387              1009.4646              1011.9428
 Red. masses --      2.0377                 1.7580                 3.2534
 Frc consts  --      1.1816                 1.0555                 1.9629
 IR Inten    --      0.2896                 2.4050                 0.1279

                     49                     50                     51
                      A                      A                      A
 Frequencies --   1026.4423              1056.5271              1064.4825
 Red. masses --      1.4329                 2.1407                 1.7737
 Frc consts  --      0.8895                 1.4079                 1.1842
 IR Inten    --      1.7947                 2.2009                 1.8020

                     52                     53                     54
                      A                      A                      A
 Frequencies --   1071.4708              1091.5458              1102.5005
 Red. masses --      1.6449                 1.4931                 1.5017
 Frc consts  --      1.1126                 1.0481                 1.0755
 IR Inten    --      0.2197                 3.2437                 0.9639

                     55                     56                     57
                      A                      A                      A
 Frequencies --   1114.0454              1126.1607              1154.1715
 Red. masses --      2.5110                 1.7164                 2.2527
 Frc consts  --      1.8361                 1.2825                 1.7680
 IR Inten    --      0.6907                 3.7424                 0.3419

                     58                     59                     60
                      A                      A                      A
 Frequencies --   1160.6200              1171.2083              1229.4723
 Red. masses --      2.1609                 1.9475                 1.5306
 Frc consts  --      1.7150                 1.5740                 1.3632
 IR Inten    --      0.5338                 1.2431                 3.4425

                     61                     62                     63
                      A                      A                      A
 Frequencies --   1237.4338              1237.5557              1241.5530
 Red. masses --      1.4607                 1.4621                 1.4621
 Frc consts  --      1.3178                 1.3193                 1.3279
 IR Inten    --      0.3531                 0.1890                 3.9580

                     64                     65                     66
                      A                      A                      A
 Frequencies --   1264.3462              1289.0433              1299.0114
 Red. masses --      1.6303                 1.4414                 1.6561
 Frc consts  --      1.5355                 1.4112                 1.6465
 IR Inten    --      6.9455                 0.5196                 0.6988

                     67                     68                     69
                      A                      A                      A
 Frequencies --   1303.3779              1326.9948              1333.7005
 Red. masses --      1.5272                 1.2329                 1.2249
 Frc consts  --      1.5286                 1.2792                 1.2837
 IR Inten    --      0.5353                 0.4361                 1.9020

                     70                     71                     72
                      A                      A                      A
 Frequencies --   1350.7633              1355.4135              1372.3164
 Red. masses --      1.3159                 1.4276                 1.2985
 Frc consts  --      1.4146                 1.5453                 1.4407
 IR Inten    --      0.2883                 1.3214                 0.5498

                     73                     74                     75
                      A                      A                      A
 Frequencies --   1378.9998              1391.1916              1401.0934
 Red. masses --      1.3617                 1.4485                 1.4198
 Frc consts  --      1.5256                 1.6518                 1.6421
 IR Inten    --      1.6645                 0.5817                 0.3426

                     76                     77                     78
                      A                      A                      A
 Frequencies --   1409.4490              1413.1697              1425.8138
 Red. masses --      1.5660                 1.6143                 1.8321
 Frc consts  --      1.8329                 1.8994                 2.1944
 IR Inten    --      1.2721                 3.5437                 0.7434

                     79                     80                     81
                      A                      A                      A
 Frequencies --   1431.5553              1433.5620              1437.4237
 Red. masses --      1.2735                 1.2174                 1.2332
 Frc consts  --      1.5376                 1.4740                 1.5013
 IR Inten    --      4.5297                 0.6352                 5.6046

                     82                     83                     84
                      A                      A                      A
 Frequencies --   1456.1942              1480.6619              1483.4321
 Red. masses --      1.2520                 1.1827                 1.1968
 Frc consts  --      1.5642                 1.5277                 1.5517
 IR Inten    --      1.9840                 5.1131                 6.7273

                     85                     86                     87
                      A                      A                      A
 Frequencies --   1515.4371              1516.6411              1523.1904
 Red. masses --      1.0883                 1.0911                 1.0626
 Frc consts  --      1.4726                 1.4787                 1.4525
 IR Inten    --      1.1685                 1.4349                 4.7297

                     88                     89                     90
                      A                      A                      A
 Frequencies --   1525.0334              1525.7334              1531.8772
 Red. masses --      1.0558                 1.0589                 1.0456
 Frc consts  --      1.4468                 1.4523                 1.4456
 IR Inten    --      0.3634                 8.4698                 1.8463

                     91                     92                     93
                      A                      A                      A
 Frequencies --   1532.9349              1535.5604              1537.6999
 Red. masses --      1.0394                 1.0663                 1.0651
 Frc consts  --      1.4391                 1.4813                 1.4838
 IR Inten    --      5.1617                 3.3285                10.7075

                     94                     95                     96
                      A                      A                      A
 Frequencies --   1538.0044              1543.2595              1547.8604
 Red. masses --      1.0466                 1.0552                 1.0513
 Frc consts  --      1.4586                 1.4807                 1.4840
 IR Inten    --      2.3272                 3.2997                 0.3140

                     97                     98                     99
                      A                      A                      A
 Frequencies --   1724.9253              1728.9652              2977.6475
 Red. masses --      5.0432                 4.9998                 1.0806
 Frc consts  --      8.8409                 8.8059                 5.6449
 IR Inten    --      4.0017                31.6493                 6.8343

                    100                    101                    102
                      A                      A                      A
 Frequencies --   2999.2345              3020.5276              3023.4704
 Red. masses --      1.0822                 1.0760                 1.0701
 Frc consts  --      5.7354                 5.7841                 5.7636
 IR Inten    --     26.4955                 6.9234                15.2044

                    103                    104                    105
                      A                      A                      A
 Frequencies --   3026.6710              3031.1555              3034.7638
 Red. masses --      1.0656                 1.0626                 1.0648
 Frc consts  --      5.7513                 5.7524                 5.7780
 IR Inten    --     19.7629                 6.0101                48.9026

                    106                    107                    108
                      A                      A                      A
 Frequencies --   3040.0142              3047.7815              3049.0932
 Red. masses --      1.0841                 1.0368                 1.0357
 Frc consts  --      5.9031                 5.6744                 5.6730
 IR Inten    --     31.0820                 4.6456                45.1632

                    109                    110                    111
                      A                      A                      A
 Frequencies --   3053.8935              3061.6810              3074.0862
 Red. masses --      1.0362                 1.0356                 1.0937
 Frc consts  --      5.6938                 5.7194                 6.0898
 IR Inten    --     26.7941                21.9860                69.8410

                    112                    113                    114
                      A                      A                      A
 Frequencies --   3075.3336              3081.2544              3084.0598
 Red. masses --      1.0979                 1.0997                 1.1032
 Frc consts  --      6.1176                 6.1517                 6.1823
 IR Inten    --     55.0808                 1.9395               103.0662

                    115                    116                    117
                      A                      A                      A
 Frequencies --   3097.0256              3104.1453              3117.6368
 Red. masses --      1.1015                 1.1013                 1.1019
 Frc consts  --      6.2246                 6.2524                 6.3101
 IR Inten    --      1.5028                21.7230                25.2171

                    118                    119                    120
                      A                      A                      A
 Frequencies --   3121.5024              3123.9411              3130.7711
 Red. masses --      1.1027                 1.1024                 1.1017
 Frc consts  --      6.3305                 6.3383                 6.3622
 IR Inten    --     72.8122                41.5305                17.3012

                    121                    122                    123
                      A                      A                      A
 Frequencies --   3132.3873              3134.2703              3165.7267
 Red. masses --      1.1016                 1.1019                 1.0618
 Frc consts  --      6.3684                 6.3779                 6.2696
 IR Inten    --     40.4506                22.6201                12.3482

                    124                    125                    126
                      A                      A                      A
 Frequencies --   3187.4229              3245.6105              3257.5887
 Red. masses --      1.0595                 1.1127                 1.1146
 Frc consts  --      6.3419                 6.9056                 6.9687
 IR Inten    --      8.7893                15.6730                14.2670

 - Thermochemistry -
 -------------------
 Temperature   298.150 Kelvin.  Pressure   1.00000 Atm.
 Atom     1 has atomic number  6 and mass  12.00000

 Molecular mass:   220.21910 amu.
 Principal axes and moments of inertia in atomic units:
                           1         2         3
     Eigenvalues --  3305.307404033.573775551.99170
           X            0.99993  -0.01123   0.00281
           Y            0.01126   0.99989  -0.00968
           Z           -0.00270   0.00971   0.99995
 This molecule is an asymmetric top.
 Rotational symmetry number  1.
 Warning -- assumption of classical behavior for rotation
           may cause significant error
 Rotational temperatures (Kelvin)      0.02620     0.02147     0.01560
 Rotational constants (GHZ):           0.54601     0.44743     0.32506
 Zero-point vibrational energy    1072407.2 (Joules/Mol)
                                  256.31148 (Kcal/Mol)
 Warning -- explicit consideration of  29 degrees of freedom as
           vibrations may cause significant error
 Vibrational temperatures:     37.35    52.45    61.69   111.61   123.36
          (Kelvin)            128.02   139.66   159.78   186.81   232.84
                              296.89   325.29   355.05   371.19   417.51
                              440.31   459.45   475.26   484.46   521.52
                              539.20   554.05   611.22   669.61   718.99
                              769.21   803.74   850.02   885.82  1018.77
                             1051.02  1103.18  1130.36  1162.58  1185.94
                             1200.81  1206.82  1253.12  1282.53  1293.30
                             1322.12  1326.61  1341.10  1348.10  1400.54
                             1427.32  1452.39  1455.96  1476.82  1520.11
                             1531.55  1541.61  1570.49  1586.25  1602.86
                             1620.29  1660.60  1669.87  1685.11  1768.94
                             1780.39  1780.57  1786.32  1819.11  1854.65
                             1868.99  1875.27  1909.25  1918.90  1943.45
                             1950.14  1974.46  1984.07  2001.61  2015.86
                             2027.88  2033.24  2051.43  2059.69  2062.58
                             2068.13  2095.14  2130.34  2134.33  2180.38
                             2182.11  2191.53  2194.18  2195.19  2204.03
                             2205.55  2209.33  2212.41  2212.85  2220.41
                             2227.03  2481.78  2487.60  4284.17  4315.23
                             4345.87  4350.10  4354.70  4361.16  4366.35
                             4373.90  4385.08  4386.96  4393.87  4405.08
                             4422.92  4424.72  4433.24  4437.27  4455.93
                             4466.17  4485.58  4491.15  4494.65  4504.48
                             4506.81  4509.52  4554.77  4585.99  4669.71
                             4686.94

 Zero-point correction=                           0.408458 (Hartree/Particle)
 Thermal correction to Energy=                    0.427193
 Thermal correction to Enthalpy=                  0.428138
 Thermal correction to Gibbs Free Energy=         0.361113
 Sum of electronic and zero-point Energies=           -626.227798
 Sum of electronic and thermal Energies=              -626.209062
 Sum of electronic and thermal Enthalpies=            -626.208118
 Sum of electronic and thermal Free Energies=         -626.275143

                     E (Thermal)             CV                S
                      KCal/Mol        Cal/Mol-Kelvin    Cal/Mol-Kelvin
 Total                  268.068             71.179            141.066
 Electronic               0.000              0.000              0.000
 Translational            0.889              2.981             42.071
 Rotational               0.889              2.981             32.670
 Vibrational            266.290             65.218             66.324
 Vibration     1          0.593              1.985              6.117
 Vibration     2          0.594              1.982              5.443
 Vibration     3          0.595              1.980              5.121
 Vibration     4          0.599              1.964              3.951
 Vibration     5          0.601              1.959              3.755
 Vibration     6          0.602              1.957              3.682
 Vibration     7          0.603              1.951              3.512
 Vibration     8          0.607              1.940              3.250
 Vibration     9          0.612              1.923              2.948
 Vibration    10          0.622              1.889              2.528
 Vibration    11          0.641              1.831              2.076
 Vibration    12          0.650              1.801              1.910
 Vibration    13          0.661              1.768              1.754
 Vibration    14          0.667              1.749              1.675
 Vibration    15          0.686              1.692              1.473
 Vibration    16          0.696              1.662              1.384
 Vibration    17          0.705              1.637              1.314
 Vibration    18          0.713              1.615              1.259
 Vibration    19          0.717              1.602              1.228
 Vibration    20          0.736              1.550              1.111
 Vibration    21          0.746              1.524              1.060
 Vibration    22          0.754              1.502              1.019
 Vibration    23          0.787              1.416              0.876
 Vibration    24          0.823              1.327              0.751
 Vibration    25          0.855              1.251              0.659
 Vibration    26          0.890              1.173              0.577
 Vibration    27          0.914              1.121              0.527
 Vibration    28          0.948              1.051              0.466
 Vibration    29          0.975              0.999              0.423

 Optimization completed.
    -- Stationary point found.
 Normal termination of Gaussian 16 at Thu Dec 10 22:20:22 2020.

 ----------------------------------------------------------------------
 # B3LYP/6-311++G(d,p) empiricaldispersion=gd3bj scf=xqc pop=npa geom=c
 heck
 ----------------------------------------------------------------------

 ---------------------------------------
 CID_141941872_JID_6039_Energie_neutraal
 ---------------------------------------
 Structure from the checkpoint file:  "JID_6039.chk"
 Charge =  0 Multiplicity = 1

 SCF Done:  E(RB3LYP) =  -626.804837792     A.U. after   14 cycles
 Normal termination of Gaussian 16 at Thu Dec 10 22:29:35 2020.

 ----------------------------------------------------------------------
 # B3LYP/6-311++G(d,p) empiricaldispersion=gd3bj scf=xqc pop=npa geom=c
 heck
 ----------------------------------------------------------------------

 -------------------------------------
 CID_141941872_JID_6039_Energie_kation
 -------------------------------------
 Structure from the checkpoint file:  "JID_6039.chk"
 Charge =  1 Multiplicity = 2

 SCF Done:  E(UB3LYP) =  -626.501215028     A.U. after   22 cycles
 Normal termination of Gaussian 16 at Thu Dec 10 22:53:32 2020.
 Gaussian 16:  ES64L-G16RevA.03 25-Dec-2016

 ----------------------------------------------------------------------
 # B3LYP/6-311++G(d,p) empiricaldispersion=gd3bj scf=xqc pop=npa geom=c
 heck
 ----------------------------------------------------------------------

 ------------------------------------
 CID_141941872_JID_6039_Energie_anion
 ------------------------------------
 Structure from the checkpoint file:  "JID_6039.chk"
 Charge = -1 Multiplicity = 2

                         Standard orientation:
 ---------------------------------------------------------------------
 Center     Atomic      Atomic             Coordinates (Angstroms)
 Number     Number       Type             X           Y           Z
 ---------------------------------------------------------------------
      1          6           0       -2.784659    2.766769   -0.591119
      2          6           0       -2.773196    1.803223   -1.779234
      3          6           0        1.145745    2.133907   -0.760218
      4          6           0        1.397044    1.402416    0.570509
      5          6           0        2.406256    0.222296    0.426994
      6          6           0        1.770801   -0.883681   -0.395645
      7          6           0        2.283839   -1.322907   -1.548904
      8          6           0        0.479501   -1.418287    0.200958
      9          6           0       -0.164505   -2.561694   -0.593712
     10          6           0       -1.453344   -3.066280    0.062344
     11          6           0       -2.456296   -1.923902    0.246451
     12          6           0       -1.838824   -0.778852    1.054484
     13          6           0       -0.543251   -0.258174    0.419950
     14          6           0        0.112587    0.877102    1.180406
     15          6           0       -0.352752    1.375225    2.330315
     16          6           0        3.780154    0.689030   -0.055368
     17          1           0       -2.479638    3.774735   -0.896017
     18          1           0       -2.099849    2.438158    0.197383
     19          1           0       -3.786390    2.844652   -0.152601
     20          1           0       -3.452792    2.135614   -2.572404
     21          1           0       -1.770749    1.722749   -2.214761
     22          1           0       -3.084854    0.796561   -1.477918
     23          1           0        2.049976    2.646724   -1.103037
     24          1           0        0.359063    2.885205   -0.638271
     25          1           0        0.839647    1.440608   -1.549632
     26          1           0        1.834899    2.123671    1.272495
     27          1           0        2.533686   -0.175685    1.445888
     28          1           0        1.811950   -2.105822   -2.132108
     29          1           0        3.205920   -0.921054   -1.954879
     30          1           0        0.722710   -1.801804    1.206418
     31          1           0       -0.395485   -2.206810   -1.607951
     32          1           0        0.552920   -3.383688   -0.702276
     33          1           0       -1.891767   -3.869823   -0.542104
     34          1           0       -1.217374   -3.503146    1.043557
     35          1           0       -2.763467   -1.550124   -0.741203
     36          1           0       -3.365743   -2.285156    0.742032
     37          1           0       -2.555950    0.044766    1.151652
     38          1           0       -1.623456   -1.132984    2.072386
     39          1           0       -0.794219    0.115712   -0.583715
     40          1           0       -1.260692    1.016817    2.803276
     41          1           0        0.169665    2.179975    2.841819
     42          1           0        4.162527    1.477424    0.602722
     43          1           0        4.499281   -0.136654   -0.047820
     44          1           0        3.745584    1.092244   -1.072193
 ---------------------------------------------------------------------

 SCF Done:  E(UB3LYP) =  -626.789403471     A.U. after   33 cycles
 SCF Done:  E(UB3LYP) =  -626.789403471     a.u. after    1 cycles

 The electronic state is 2-A.
 Alpha  occ. eigenvalues --  -10.08288 -10.08256 -10.08233 -10.08207 -10.08192
 Alpha  occ. eigenvalues --  -10.08176 -10.06966 -10.06934 -10.06910 -10.06900
 Alpha  occ. eigenvalues --  -10.06873 -10.06576 -10.06315 -10.06246 -10.06089
 Alpha  occ. eigenvalues --  -10.05917  -0.77066  -0.72511  -0.70126  -0.66581
 Alpha  occ. eigenvalues --   -0.66288  -0.64339  -0.61921  -0.61238  -0.56703
 Alpha  occ. eigenvalues --   -0.53057  -0.52616  -0.51943  -0.49825  -0.46199
 Alpha  occ. eigenvalues --   -0.43831  -0.41507  -0.38871  -0.38030  -0.36825
 Alpha  occ. eigenvalues --   -0.36004  -0.35402  -0.34557  -0.34410  -0.33686
 Alpha  occ. eigenvalues --   -0.33040  -0.31711  -0.31044  -0.30399  -0.29304
 Alpha  occ. eigenvalues --   -0.28402  -0.28159  -0.27940  -0.27684  -0.26185
 Alpha  occ. eigenvalues --   -0.25635  -0.25414  -0.25299  -0.24930  -0.24801
 Alpha  occ. eigenvalues --   -0.23704  -0.22724  -0.21901  -0.20723  -0.19503
 Alpha  occ. eigenvalues --   -0.16637  -0.14848   0.04264
 Alpha virt. eigenvalues --    0.05973   0.06304   0.06771   0.07793   0.08104
 Alpha virt. eigenvalues --    0.08288   0.08538   0.08908   0.09348   0.10016
 Alpha virt. eigenvalues --    0.10220   0.10337   0.10785   0.10976   0.11528

  Beta  occ. eigenvalues --  -10.08284 -10.08252 -10.08228 -10.08200 -10.08183
  Beta  occ. eigenvalues --  -10.08169 -10.06951 -10.06918 -10.06899 -10.06888
  Beta  occ. eigenvalues --  -10.06857 -10.06559 -10.06287 -10.06227 -10.06072
  Beta  occ. eigenvalues --  -10.05897  -0.77045  -0.72488  -0.70104  -0.66554
  Beta  occ. eigenvalues --   -0.66263  -0.64313  -0.61893  -0.61203  -0.56658
  Beta  occ. eigenvalues --   -0.53020  -0.52562  -0.51906  -0.49783  -0.46160
  Beta  occ. eigenvalues --   -0.43792  -0.41468  -0.38842  -0.38001  -0.36798
  Beta  occ. eigenvalues --   -0.35980  -0.35380  -0.34538  -0.34385  -0.33667
  Beta  occ. eigenvalues --   -0.33009  -0.31687  -0.31017  -0.30372  -0.29276
  Beta  occ. eigenvalues --   -0.28376  -0.28132  -0.27900  -0.27656  -0.26160
  Beta  occ. eigenvalues --   -0.25613  -0.25391  -0.25276  -0.24897  -0.24774
  Beta  occ. eigenvalues --   -0.23675  -0.22700  -0.21879  -0.20697  -0.19479
  Beta  occ. eigenvalues --   -0.16585  -0.14798
  Beta virt. eigenvalues --    0.06117   0.06658   0.06982   0.07126   0.08224
  Beta virt. eigenvalues --    0.08524   0.08574   0.08850   0.09096   0.09521
  Beta virt. eigenvalues --    0.10287   0.10589   0.10655   0.11092   0.11239

 Mulliken charges and spin densities:
               1          2
     1  C    0.065309  -0.529973
     2  C   -0.324015  -0.115237
     3  C   -0.423256  -0.383347
     4  C   -0.259846   0.409434
     5  C   -1.584092   1.321265
     6  C    1.133092  -0.279487
     7  C   -0.404913  -0.094780
     8  C   -0.020727  -0.309629
     9  C   -0.748009   0.407346
    10  C    0.619017  -1.302344
    11  C    0.537997  -0.928420
    12  C   -0.807760   0.225268
    13  C    0.183564  -0.102618
    14  C   -0.103026   0.342250
    15  C    0.487382  -0.799744
    16  C    1.504306  -2.149300
    17  H   -0.026616   0.141964
    18  H    0.194561   0.016640
    19  H   -0.050012   0.175544
    20  H   -0.286010   0.443173
    21  H    0.085897   0.046624
    22  H   -0.015167   0.153294
    23  H   -0.202857   0.346948
    24  H    0.099901   0.061072
    25  H    0.039906   0.157389
    26  H    0.056781   0.187406
    27  H   -0.060287   0.260370
    28  H   -0.146050   0.302360
    29  H   -0.075369   0.218276
    30  H   -0.010340   0.259331
    31  H    0.085776   0.054049
    32  H   -0.095640   0.262388
    33  H   -0.405987   0.588615
    34  H    0.100596   0.021563
    35  H    0.197873  -0.126446
    36  H   -0.376512   0.561739
    37  H    0.149296  -0.002473
    38  H    0.060890   0.090682
    39  H    0.526056  -0.363848
    40  H   -0.093608   0.257907
    41  H   -0.295716   0.420745
    42  H   -0.344470   0.484044
    43  H   -0.095294   0.246661
    44  H    0.127381   0.023303
 Sum of Mulliken charges =  -1.00000   1.00000

 Dipole moment (field-independent basis, Debye):
    X=             -0.4421    Y=              0.1544    Z=             -0.4775  Tot=              0.6688
 Quadrupole moment (field-independent basis, Debye-Ang):
   XX=           -178.9960   YY=           -167.8610   ZZ=           -145.2468
   XY=             -4.6068   XZ=             -3.8083   YZ=             -0.8681

 Summary of Natural Population Analysis:

                                       Natural Population
                Natural  -----------------------------------------------
    Atom  No    Charge         Core      Valence    Rydberg      Total
 -----------------------------------------------------------------------
      C    1   -0.28965      0.99967     2.28514    0.00484     3.28965
      C    2   -0.28774      0.99968     2.28358    0.00448     3.28774
      C    3   -0.28756      0.99964     2.28158    0.00635     3.28756
      C    4   -0.11707      0.99953     2.10402    0.01351     3.11707
      C    5   -0.11998      0.99953     2.10885    0.01160     3.11998
      C    6    0.01518      0.99950     1.97327    0.01205     2.98482
      C    7   -0.20315      0.99947     2.19627    0.00740     3.20315
      C    8   -0.11699      0.99953     2.10634    0.01112     3.11699
      C    9   -0.19008      0.99962     2.18060    0.00987     3.19008
      C   10   -0.18577      0.99963     2.17824    0.00791     3.18577
      C   11   -0.18667      0.99963     2.17872    0.00832     3.18667
      C   12   -0.18983      0.99962     2.18062    0.00959     3.18983
      C   13   -0.12720      0.99952     2.11659    0.01110     3.12720
      C   14    0.01763      0.99949     1.96989    0.01298     2.98237
      C   15   -0.20009      0.99947     2.19263    0.00798     3.20009
      C   16   -0.28690      0.99965     2.28090    0.00635     3.28690
      H   17    0.09405      0.00000     0.40509    0.00086     0.40595
      H   18    0.10313      0.00000     0.39536    0.00150     0.39687
      H   19    0.09400      0.00000     0.40512    0.00088     0.40600
      H   20    0.09412      0.00000     0.40502    0.00087     0.40588
      H   21    0.09653      0.00000     0.40245    0.00102     0.40347
      H   22    0.09642      0.00000     0.40245    0.00113     0.40358
      H   23    0.10138      0.00000     0.39773    0.00089     0.39862
      H   24    0.10250      0.00000     0.39649    0.00101     0.39750
      H   25    0.10019      0.00000     0.39860    0.00121     0.39981
      H   26    0.10022      0.00000     0.39781    0.00196     0.39978
      H   27    0.10353      0.00000     0.39456    0.00190     0.39647
      H   28    0.09574      0.00000     0.40326    0.00101     0.40426
      H   29    0.09589      0.00000     0.40313    0.00098     0.40411
      H   30    0.10129      0.00000     0.39669    0.00202     0.39871
      H   31    0.09487      0.00000     0.40364    0.00149     0.40513
      H   32    0.10283      0.00000     0.39611    0.00106     0.39717
      H   33    0.09888      0.00000     0.40005    0.00107     0.40112
      H   34    0.09290      0.00000     0.40581    0.00129     0.40710
      H   35    0.09206      0.00000     0.40637    0.00157     0.40794
      H   36    0.09931      0.00000     0.39963    0.00106     0.40069
      H   37    0.10138      0.00000     0.39699    0.00164     0.39862
      H   38    0.09654      0.00000     0.40202    0.00143     0.40346
      H   39    0.10510      0.00000     0.39176    0.00315     0.39490
      H   40    0.09524      0.00000     0.40372    0.00105     0.40476
      H   41    0.09453      0.00000     0.40431    0.00116     0.40547
      H   42    0.10230      0.00000     0.39656    0.00114     0.39770
      H   43    0.10277      0.00000     0.39628    0.00095     0.39723
      H   44    0.09820      0.00000     0.40073    0.00107     0.40180
 =======================================================================
   * Total *    0.00000     15.99318    45.82497    0.18185    62.00000

 Normal termination of Gaussian 16 at Thu Dec 10 23:24:18 2020.
