 Gaussian 16, Revision A.03,

 -----------------------------------------------------------
 # opt freq B3LYP/6-31G(d) empiricaldispersion=gd3bj scf=xqc
 -----------------------------------------------------------

 -------------------------------
 CID_101468723_JID_8828_neutraal
 -------------------------------
 Symbolic Z-matrix:
 Charge =  0 Multiplicity = 1

 SCF Done:  E(RB3LYP) =  -1087.75154209     A.U. after   14 cycles
 SCF Done:  E(RB3LYP) =  -1087.76078334     A.U. after   13 cycles
 SCF Done:  E(RB3LYP) =  -1087.76160740     A.U. after   13 cycles
 SCF Done:  E(RB3LYP) =  -1087.76294247     A.U. after   12 cycles
 SCF Done:  E(RB3LYP) =  -1087.76323206     A.U. after   12 cycles
 SCF Done:  E(RB3LYP) =  -1087.76341205     A.U. after   12 cycles
 SCF Done:  E(RB3LYP) =  -1087.76345026     A.U. after   11 cycles
 SCF Done:  E(RB3LYP) =  -1087.76345824     A.U. after   10 cycles
 SCF Done:  E(RB3LYP) =  -1087.76345996     A.U. after    8 cycles
 SCF Done:  E(RB3LYP) =  -1087.76346010     A.U. after    8 cycles
 Optimization completed.
    -- Stationary point found.
 Normal termination of Gaussian 16 at Fri Dec 11 22:11:23 2020.

 --------------------------------------------------------------------
 #N Geom=AllCheck Guess=TCheck SCRF=Check GenChk RB3LYP/6-31G(d) Freq
 --------------------------------------------------------------------

 Structure from the checkpoint file:  "JID_8828.chk"
 -------------------------------
 CID_101468723_JID_8828_neutraal
 -------------------------------
 Charge =  0 Multiplicity = 1

 SCF Done:  E(RB3LYP) =  -1087.76346010     A.U. after    1 cycles

  Exact polarizability: 237.104  -7.328 171.440  25.163  10.637 134.873
 Approx polarizability: 349.015 -14.556 308.938  54.943  20.625 233.416

                      1                      2                      3
                      A                      A                      A
 Frequencies --     28.8571                39.4173                58.2559
 Red. masses --      4.8512                 5.0987                 4.6032
 Frc consts  --      0.0024                 0.0047                 0.0092
 IR Inten    --      0.1744                 0.2524                 0.0955

                      4                      5                      6
                      A                      A                      A
 Frequencies --    103.2924               130.4088               172.8261
 Red. masses --      3.9767                 4.8794                 5.4446
 Frc consts  --      0.0250                 0.0489                 0.0958
 IR Inten    --      0.9540                 1.1509                 1.2949

                      7                      8                      9
                      A                      A                      A
 Frequencies --    206.2757               232.6188               255.8718
 Red. masses --      5.2462                 5.1244                 5.3768
 Frc consts  --      0.1315                 0.1634                 0.2074
 IR Inten    --      0.3134                 2.3709                 0.9074

                     10                     11                     12
                      A                      A                      A
 Frequencies --    275.9813               336.5118               360.1069
 Red. masses --      4.4366                 4.8743                 2.5466
 Frc consts  --      0.1991                 0.3252                 0.1946
 IR Inten    --      7.3339                 2.8156                 4.8091

                     13                     14                     15
                      A                      A                      A
 Frequencies --    380.4509               415.7215               425.0569
 Red. masses --      5.0651                 2.9985                 3.2926
 Frc consts  --      0.4320                 0.3053                 0.3505
 IR Inten    --      5.2569                 0.0459                 7.4379

                     16                     17                     18
                      A                      A                      A
 Frequencies --    437.7596               456.4932               491.2382
 Red. masses --      2.5067                 3.3719                 5.7015
 Frc consts  --      0.2830                 0.4140                 0.8106
 IR Inten    --     13.6534                 4.8374                 1.8720

                     19                     20                     21
                      A                      A                      A
 Frequencies --    515.3002               535.3652               547.7873
 Red. masses --      2.3914                 3.4742                 3.9298
 Frc consts  --      0.3741                 0.5867                 0.6948
 IR Inten    --     17.7892                 2.9017                13.0737

                     22                     23                     24
                      A                      A                      A
 Frequencies --    598.3908               624.1583               635.0885
 Red. masses --      4.8320                 4.1252                 6.1188
 Frc consts  --      1.0194                 0.9469                 1.4541
 IR Inten    --      1.6786                14.0994                 0.1113

                     25                     26                     27
                      A                      A                      A
 Frequencies --    680.1363               681.7108               713.6684
 Red. masses --      5.8893                 5.6659                 1.7685
 Frc consts  --      1.6051                 1.5514                 0.5307
 IR Inten    --      4.5647                 9.2576                29.0694

                     28                     29                     30
                      A                      A                      A
 Frequencies --    747.4494               759.4295               767.9026
 Red. masses --      2.9508                 3.9529                 2.2424
 Frc consts  --      0.9713                 1.3432                 0.7791
 IR Inten    --     45.9983                44.9819                38.9115

                     31                     32                     33
                      A                      A                      A
 Frequencies --    777.6588               799.7164               804.3207
 Red. masses --      1.4337                 3.4646                 2.2607
 Frc consts  --      0.5109                 1.3055                 0.8617
 IR Inten    --     44.3099                32.0277               172.8655

                     34                     35                     36
                      A                      A                      A
 Frequencies --    826.5746               856.3421               886.3703
 Red. masses --      3.6579                 1.2484                 1.3307
 Frc consts  --      1.4725                 0.5394                 0.6160
 IR Inten    --     29.8092                 1.1665                 2.1963

                     37                     38                     39
                      A                      A                      A
 Frequencies --    923.1293               964.7230               968.9163
 Red. masses --      1.4163                 1.3570                 1.4653
 Frc consts  --      0.7111                 0.7441                 0.8105
 IR Inten    --      1.1454                 0.3203                 4.7289

                     40                     41                     42
                      A                      A                      A
 Frequencies --    976.8783               992.0274               995.4606
 Red. masses --      2.0696                 1.2768                 1.2516
 Frc consts  --      1.1637                 0.7403                 0.7307
 IR Inten    --      0.7530                 0.3956                 2.4370

                     43                     44                     45
                      A                      A                      A
 Frequencies --   1005.8487              1022.3994              1061.2708
 Red. masses --      2.1547                 6.1614                 2.6341
 Frc consts  --      1.2844                 3.7947                 1.7480
 IR Inten    --      4.2126                 0.9944                 6.4546

                     46                     47                     48
                      A                      A                      A
 Frequencies --   1067.8469              1071.1169              1116.8186
 Red. masses --      3.2826                 3.7062                 1.6512
 Frc consts  --      2.2054                 2.5053                 1.2134
 IR Inten    --      5.7443                14.9998                 8.5564

                     49                     50                     51
                      A                      A                      A
 Frequencies --   1123.5451              1149.7917              1166.3740
 Red. masses --      2.1071                 2.3189                 2.0082
 Frc consts  --      1.5672                 1.8062                 1.6097
 IR Inten    --     29.3624                15.0153                18.3026

                     52                     53                     54
                      A                      A                      A
 Frequencies --   1194.2238              1199.5502              1203.1236
 Red. masses --      1.0959                 1.3096                 1.3121
 Frc consts  --      0.9208                 1.1103                 1.1190
 IR Inten    --      0.0432                 0.7579                 5.2409

                     55                     56                     57
                      A                      A                      A
 Frequencies --   1219.6910              1227.4308              1244.2355
 Red. masses --      1.1633                 1.7111                 1.2786
 Frc consts  --      1.0196                 1.5188                 1.1662
 IR Inten    --      0.8177                 2.0879                 1.9133

                     58                     59                     60
                      A                      A                      A
 Frequencies --   1282.6892              1304.3023              1330.0494
 Red. masses --      1.8767                 1.6748                 2.7912
 Frc consts  --      1.8193                 1.6787                 2.9093
 IR Inten    --     18.6745                15.1175                 8.2820

                     61                     62                     63
                      A                      A                      A
 Frequencies --   1338.6238              1348.5121              1368.6534
 Red. masses --      2.2702                 1.7796                 3.2917
 Frc consts  --      2.3968                 1.9067                 3.6330
 IR Inten    --      6.2213                 2.4350                 5.0675

                     64                     65                     66
                      A                      A                      A
 Frequencies --   1376.6521              1396.6396              1482.6936
 Red. masses --      1.3718                 1.6675                 2.1262
 Frc consts  --      1.5317                 1.9164                 2.7540
 IR Inten    --      8.5245                 3.7147                22.3407

                     67                     68                     69
                      A                      A                      A
 Frequencies --   1499.2851              1502.3464              1517.1412
 Red. masses --      1.1389                 2.1833                 2.2961
 Frc consts  --      1.5083                 2.9034                 3.1139
 IR Inten    --      8.7097                10.5167                26.4521

                     70                     71                     72
                      A                      A                      A
 Frequencies --   1548.7863              1615.5629              1647.2368
 Red. masses --      2.2021                 5.4211                 5.4974
 Frc consts  --      3.1123                 8.3365                 8.7887
 IR Inten    --     10.6751                 4.3811                 1.3063

                     73                     74                     75
                      A                      A                      A
 Frequencies --   1649.7185              1667.2963              1685.6275
 Red. masses --      5.2419                 5.5450                 2.6981
 Frc consts  --      8.4054                 9.0820                 4.5168
 IR Inten    --     22.1358                 3.6250                13.8232

                     76                     77                     78
                      A                      A                      A
 Frequencies --   1702.5788              3055.0346              3083.1779
 Red. masses --      1.4991                 1.0645                 1.0849
 Frc consts  --      2.5603                 5.8539                 6.0762
 IR Inten    --     11.6774                20.4815                14.8005

                     79                     80                     81
                      A                      A                      A
 Frequencies --   3127.5875              3172.7668              3183.9310
 Red. masses --      1.1000                 1.0870                 1.0864
 Frc consts  --      6.3397                 6.4472                 6.4889
 IR Inten    --      8.9931                 8.9452                 0.1493

                     82                     83                     84
                      A                      A                      A
 Frequencies --   3185.0351              3194.9283              3196.7435
 Red. masses --      1.0863                 1.0912                 1.0896
 Frc consts  --      6.4929                 6.5625                 6.5607
 IR Inten    --      1.6945                24.7531                 9.3812

                     85                     86                     87
                      A                      A                      A
 Frequencies --   3207.1655              3209.6640              3214.6263
 Red. masses --      1.0945                 1.0943                 1.0955
 Frc consts  --      6.6333                 6.6420                 6.6697
 IR Inten    --     39.8057                21.1048                 7.4847

                     88                     89                     90
                      A                      A                      A
 Frequencies --   3222.8796              3417.4295              3587.0027
 Red. masses --      1.0946                 1.0536                 1.0901
 Frc consts  --      6.6986                 7.2497                 8.2640
 IR Inten    --      9.5563                 2.6973                 7.8009

 - Thermochemistry -
 -------------------
 Temperature   298.150 Kelvin.  Pressure   1.00000 Atm.
 Atom     1 has atomic number  6 and mass  12.00000

 Molecular mass:   254.08777 amu.
 Principal axes and moments of inertia in atomic units:
                           1         2         3
     Eigenvalues --  2602.374076189.305037106.39261
           X            0.99998   0.00132   0.00598
           Y           -0.00150   0.99958   0.02899
           Z           -0.00594  -0.02900   0.99956
 This molecule is an asymmetric top.
 Rotational symmetry number  1.
 Warning -- assumption of classical behavior for rotation
           may cause significant error
 Rotational temperatures (Kelvin)      0.03328     0.01399     0.01219
 Rotational constants (GHZ):           0.69350     0.29159     0.25396
 Zero-point vibrational energy     680563.2 (Joules/Mol)
                                  162.65851 (Kcal/Mol)
 Warning -- explicit consideration of  22 degrees of freedom as
           vibrations may cause significant error
 Vibrational temperatures:     41.52    56.71    83.82   148.61   187.63
          (Kelvin)            248.66   296.78   334.69   368.14   397.08
                              484.17   518.11   547.38   598.13   611.56
                              629.84   656.79   706.78   741.40   770.27
                              788.14   860.95   898.02   913.75   978.56
                              980.83  1026.81  1075.41  1092.65  1104.84
                             1118.88  1150.61  1157.24  1189.26  1232.09
                             1275.29  1328.18  1388.02  1394.05  1405.51
                             1427.31  1432.25  1447.19  1471.00  1526.93
                             1536.39  1541.10  1606.85  1616.53  1654.29
                             1678.15  1718.22  1725.89  1731.03  1754.86
                             1766.00  1790.18  1845.50  1876.60  1913.64
                             1925.98  1940.21  1969.19  1980.70  2009.45
                             2133.27  2157.14  2161.54  2182.83  2228.36
                             2324.43  2370.01  2373.58  2398.87  2425.24
                             2449.63  4395.51  4436.01  4499.90  4564.90
                             4580.97  4582.56  4596.79  4599.40  4614.40
                             4617.99  4625.13  4637.00  4916.92  5160.90

 Zero-point correction=                           0.259213 (Hartree/Particle)
 Thermal correction to Energy=                    0.273809
 Thermal correction to Enthalpy=                  0.274753
 Thermal correction to Gibbs Free Energy=         0.216663
 Sum of electronic and zero-point Energies=          -1087.504247
 Sum of electronic and thermal Energies=             -1087.489651
 Sum of electronic and thermal Enthalpies=           -1087.488707
 Sum of electronic and thermal Free Energies=        -1087.546797

                     E (Thermal)             CV                S
                      KCal/Mol        Cal/Mol-Kelvin    Cal/Mol-Kelvin
 Total                  171.818             59.088            122.261
 Electronic               0.000              0.000              0.000
 Translational            0.889              2.981             42.498
 Rotational               0.889              2.981             33.103
 Vibrational            170.040             53.126             46.660
 Vibration     1          0.593              1.984              5.906
 Vibration     2          0.594              1.981              5.288
 Vibration     3          0.596              1.974              4.515
 Vibration     4          0.605              1.947              3.391
 Vibration     5          0.612              1.923              2.940
 Vibration     6          0.626              1.876              2.405
 Vibration     7          0.641              1.831              2.076
 Vibration     8          0.653              1.791              1.859
 Vibration     9          0.666              1.753              1.690
 Vibration    10          0.678              1.718              1.558
 Vibration    11          0.717              1.603              1.229
 Vibration    12          0.735              1.554              1.122
 Vibration    13          0.750              1.512              1.037
 Vibration    14          0.779              1.436              0.907
 Vibration    15          0.787              1.416              0.875
 Vibration    16          0.798              1.388              0.834
 Vibration    17          0.815              1.347              0.776
 Vibration    18          0.847              1.269              0.680
 Vibration    19          0.870              1.216              0.621
 Vibration    20          0.890              1.172              0.575
 Vibration    21          0.903              1.145              0.549
 Vibration    22          0.956              1.035              0.452

 Optimization completed.
    -- Stationary point found.
 Normal termination of Gaussian 16 at Fri Dec 11 22:25:46 2020.

 ----------------------------------------------------------------------
 # B3LYP/6-311++G(d,p) empiricaldispersion=gd3bj scf=xqc pop=npa geom=c
 heck
 ----------------------------------------------------------------------

 ---------------------------------------
 CID_101468723_JID_8828_Energie_neutraal
 ---------------------------------------
 Structure from the checkpoint file:  "JID_8828.chk"
 Charge =  0 Multiplicity = 1

 SCF Done:  E(RB3LYP) =  -1087.97068568     A.U. after   16 cycles
 Normal termination of Gaussian 16 at Fri Dec 11 22:32:36 2020.

 ----------------------------------------------------------------------
 # B3LYP/6-311++G(d,p) empiricaldispersion=gd3bj scf=xqc pop=npa geom=c
 heck
 ----------------------------------------------------------------------

 -------------------------------------
 CID_101468723_JID_8828_Energie_kation
 -------------------------------------
 Structure from the checkpoint file:  "JID_8828.chk"
 Charge =  1 Multiplicity = 2

 SCF Done:  E(UB3LYP) =  -1087.69623188     A.U. after   26 cycles
 Normal termination of Gaussian 16 at Fri Dec 11 22:48:14 2020.
 Gaussian 16:  ES64L-G16RevA.03 25-Dec-2016

 ----------------------------------------------------------------------
 # B3LYP/6-311++G(d,p) empiricaldispersion=gd3bj scf=xqc pop=npa geom=c
 heck
 ----------------------------------------------------------------------

 ------------------------------------
 CID_101468723_JID_8828_Energie_anion
 ------------------------------------
 Structure from the checkpoint file:  "JID_8828.chk"
 Charge = -1 Multiplicity = 2

                         Standard orientation:
 ---------------------------------------------------------------------
 Center     Atomic      Atomic             Coordinates (Angstroms)
 Number     Number       Type             X           Y           Z
 ---------------------------------------------------------------------
      1          6           0       -0.191826   -0.057301   -1.939108
      2          6           0       -0.859866   -1.157259   -1.085706
      3         16           0        0.428545   -2.136571   -0.196333
      4          6           0        1.721314   -0.952917    0.105570
      5          6           0        2.838693   -1.449221    0.792973
      6          6           0        3.927711   -0.630577    1.068045
      7          6           0        3.922573    0.701600    0.648996
      8          6           0        2.815536    1.203803   -0.025152
      9          6           0        1.688943    0.403023   -0.299696
     10          6           0        0.536861    0.928838   -1.065567
     11          7           0        0.031647    2.114535   -1.022381
     12          7           0        0.576325    3.080472   -0.206524
     13          6           0       -1.944279   -0.606805   -0.183532
     14          6           0       -3.266236   -0.611798   -0.640640
     15          6           0       -4.289574   -0.050120    0.123130
     16          6           0       -4.000461    0.524776    1.360322
     17          6           0       -2.684452    0.530545    1.826481
     18          6           0       -1.664792   -0.031976    1.061343
     19          1           0        0.492333   -0.532573   -2.652891
     20          1           0       -0.966399    0.479600   -2.492747
     21          1           0       -1.305227   -1.891733   -1.764023
     22          1           0        2.848085   -2.488673    1.109457
     23          1           0        4.781744   -1.035698    1.603240
     24          1           0        4.777549    1.342867    0.840518
     25          1           0        2.821487    2.228634   -0.379640
     26          1           0        0.985276    2.722691    0.659764
     27          1           0       -0.147335    3.761829   -0.004431
     28          1           0       -3.496042   -1.058226   -1.605670
     29          1           0       -5.311099   -0.067681   -0.246385
     30          1           0       -4.794981    0.959381    1.960319
     31          1           0       -2.451491    0.969351    2.792897
     32          1           0       -0.647303   -0.037354    1.438511
 ---------------------------------------------------------------------

 SCF Done:  E(UB3LYP) =  -1087.96788696     A.U. after   33 cycles
 SCF Done:  E(UB3LYP) =  -1087.96788696     a.u. after    1 cycles

 The electronic state is 2-A.
 Alpha  occ. eigenvalues --  -88.72895 -14.20583 -14.18097 -10.09989 -10.07640
 Alpha  occ. eigenvalues --  -10.07207 -10.06809 -10.06750 -10.06715 -10.06610
 Alpha  occ. eigenvalues --  -10.05940 -10.05888 -10.05661 -10.04853 -10.04585
 Alpha  occ. eigenvalues --  -10.04407 -10.04073 -10.03815  -7.81545  -5.77923
 Alpha  occ. eigenvalues --   -5.77549  -5.76955  -0.85215  -0.75819  -0.74063
 Alpha  occ. eigenvalues --   -0.70757  -0.67769  -0.64926  -0.63881  -0.62106
 Alpha  occ. eigenvalues --   -0.61423  -0.57659  -0.52400  -0.50181  -0.49254
 Alpha  occ. eigenvalues --   -0.47712  -0.46176  -0.42660  -0.40153  -0.39274
 Alpha  occ. eigenvalues --   -0.38383  -0.36150  -0.35828  -0.34329  -0.33463
 Alpha  occ. eigenvalues --   -0.32538  -0.31571  -0.31074  -0.30568  -0.28306
 Alpha  occ. eigenvalues --   -0.28179  -0.26641  -0.26011  -0.25244  -0.24645
 Alpha  occ. eigenvalues --   -0.23775  -0.23524  -0.23171  -0.21113  -0.19713
 Alpha  occ. eigenvalues --   -0.17098  -0.15082  -0.14480  -0.14032  -0.13061
 Alpha  occ. eigenvalues --   -0.09897  -0.08522   0.04816
 Alpha virt. eigenvalues --    0.06649   0.07792   0.08193   0.08727   0.09014
 Alpha virt. eigenvalues --    0.09220   0.09607   0.10135   0.10476   0.10807
 Alpha virt. eigenvalues --    0.11339   0.11602   0.12027   0.13254   0.13337

  Beta  occ. eigenvalues --  -88.72886 -14.20542 -14.17631 -10.09988 -10.07508
  Beta  occ. eigenvalues --  -10.07180 -10.06792 -10.06739 -10.06722 -10.06569
  Beta  occ. eigenvalues --  -10.05896 -10.05863 -10.05654 -10.04889 -10.04438
  Beta  occ. eigenvalues --  -10.04426 -10.03959 -10.03539  -7.81536  -5.77916
  Beta  occ. eigenvalues --   -5.77543  -5.76935  -0.84724  -0.75723  -0.73842
  Beta  occ. eigenvalues --   -0.70606  -0.67560  -0.64753  -0.63803  -0.61716
  Beta  occ. eigenvalues --   -0.61274  -0.57452  -0.52303  -0.50068  -0.48843
  Beta  occ. eigenvalues --   -0.47615  -0.46004  -0.42501  -0.40043  -0.39142
  Beta  occ. eigenvalues --   -0.38270  -0.36073  -0.35693  -0.34185  -0.33347
  Beta  occ. eigenvalues --   -0.32421  -0.31525  -0.30927  -0.30445  -0.28207
  Beta  occ. eigenvalues --   -0.28079  -0.26511  -0.25564  -0.24849  -0.24061
  Beta  occ. eigenvalues --   -0.23716  -0.23405  -0.22623  -0.20958  -0.19635
  Beta  occ. eigenvalues --   -0.16561  -0.14825  -0.13959  -0.13441  -0.12440
  Beta  occ. eigenvalues --   -0.09397  -0.07607
  Beta virt. eigenvalues --    0.06880   0.07959   0.08187   0.08838   0.08972
  Beta virt. eigenvalues --    0.09183   0.09581   0.10092   0.10453   0.10495
  Beta virt. eigenvalues --    0.11011   0.11246   0.11587   0.12096   0.13177

 Mulliken charges and spin densities:
               1          2
     1  C   -0.994035  -0.075554
     2  C    0.939282  -0.379575
     3  S   -0.032858  -0.069318
     4  C    0.034143   0.091406
     5  C   -0.083714   0.025035
     6  C   -0.496367   0.189202
     7  C   -0.232275  -0.034183
     8  C   -0.243369   0.121841
     9  C    0.100169   0.165722
    10  C    0.165538  -0.223782
    11  N    0.033290   0.160821
    12  N   -0.448184   0.064615
    13  C   -0.037821   0.202447
    14  C   -0.387266   0.094999
    15  C   -0.086657  -0.268274
    16  C    0.316540  -0.574326
    17  C   -0.265148   0.074168
    18  C   -0.462811   0.300195
    19  H    0.154672  -0.006737
    20  H    0.164573   0.017886
    21  H    0.157559   0.125418
    22  H    0.127439   0.010872
    23  H    0.110253  -0.017162
    24  H    0.110623   0.013318
    25  H    0.209319  -0.008870
    26  H    0.167584   0.042064
    27  H    0.225602   0.031110
    28  H    0.010682   0.112007
    29  H   -0.193385   0.344790
    30  H   -0.147660   0.278005
    31  H   -0.041554   0.205167
    32  H    0.125837  -0.013307
 Sum of Mulliken charges =  -1.00000   1.00000

 Dipole moment (field-independent basis, Debye):
    X=              0.4880    Y=             -1.1703    Z=              0.0865  Tot=              1.2709
 Quadrupole moment (field-independent basis, Debye-Ang):
   XX=           -168.3675   YY=           -138.3628   ZZ=           -131.3547
   XY=              1.3793   XZ=              5.0556   YZ=              6.4071

 Summary of Natural Population Analysis:

                                       Natural Population
                Natural  -----------------------------------------------
    Atom  No    Charge         Core      Valence    Rydberg      Total
 -----------------------------------------------------------------------
      C    1   -0.19430      0.99957     2.18549    0.00925     3.19430
      C    2   -0.16161      0.99951     2.14800    0.01410     3.16161
      S    3    0.12595      4.99953     2.85713    0.01738     7.87405
      C    4   -0.05733      0.99939     2.04795    0.00999     3.05733
      C    5   -0.12625      0.99952     2.11730    0.00943     3.12625
      C    6   -0.05259      0.99957     2.04355    0.00947     3.05259
      C    7   -0.12497      0.99957     2.11606    0.00934     3.12497
      C    8   -0.07478      0.99954     2.06649    0.00875     3.07478
      C    9   -0.04232      0.99942     2.03281    0.01008     3.04232
      C   10    0.08090      0.99954     1.90009    0.01947     2.91910
      N   11   -0.08147      0.99961     2.56580    0.01606     3.58147
      N   12   -0.31329      0.99975     2.80217    0.01137     3.81329
      C   13   -0.01459      0.99947     2.00293    0.01219     3.01459
      C   14   -0.10165      0.99951     2.09250    0.00964     3.10165
      C   15   -0.10205      0.99957     2.09233    0.01015     3.10205
      C   16   -0.10291      0.99957     2.09353    0.00981     3.10291
      C   17   -0.10432      0.99957     2.09377    0.01099     3.10432
      C   18   -0.08658      0.99951     2.07703    0.01004     3.08658
      H   19    0.09927      0.00000     0.39965    0.00108     0.40073
      H   20    0.11020      0.00000     0.38791    0.00189     0.38980
      H   21    0.10509      0.00000     0.39303    0.00188     0.39491
      H   22    0.09496      0.00000     0.40363    0.00141     0.40504
      H   23    0.08877      0.00000     0.41024    0.00099     0.41123
      H   24    0.09234      0.00000     0.40668    0.00098     0.40766
      H   25    0.10304      0.00000     0.39458    0.00238     0.39696
      H   26    0.16966      0.00000     0.32779    0.00255     0.33034
      H   27    0.17375      0.00000     0.32415    0.00211     0.32625
      H   28    0.09563      0.00000     0.40280    0.00157     0.40437
      H   29    0.09724      0.00000     0.40182    0.00094     0.40276
      H   30    0.09713      0.00000     0.40198    0.00088     0.40287
      H   31    0.09780      0.00000     0.40120    0.00100     0.40220
      H   32    0.10926      0.00000     0.38871    0.00203     0.39074
 =======================================================================
   * Total *   -0.00000     21.99171    44.77910    0.22920    67.00000

 Normal termination of Gaussian 16 at Fri Dec 11 23:08:08 2020.
