 Gaussian 16, Revision A.03,

 -----------------------------------------------------------
 # opt freq B3LYP/6-31G(d) empiricaldispersion=gd3bj scf=xqc
 -----------------------------------------------------------

 -------------------------------
 CID_106823224_JID_5801_neutraal
 -------------------------------
 Symbolic Z-matrix:
 Charge =  0 Multiplicity = 1

 SCF Done:  E(RB3LYP) =  -1016.74864489     A.U. after   14 cycles
 SCF Done:  E(RB3LYP) =  -1016.75659003     A.U. after   12 cycles
 SCF Done:  E(RB3LYP) =  -1016.75800086     A.U. after   12 cycles
 SCF Done:  E(RB3LYP) =  -1016.75794840     A.U. after   12 cycles
 SCF Done:  E(RB3LYP) =  -1016.75900014     A.U. after   12 cycles
 SCF Done:  E(RB3LYP) =  -1016.75923503     A.U. after   12 cycles
 SCF Done:  E(RB3LYP) =  -1016.75929750     A.U. after   12 cycles
 SCF Done:  E(RB3LYP) =  -1016.75935663     A.U. after   11 cycles
 SCF Done:  E(RB3LYP) =  -1016.75936397     A.U. after    9 cycles
 SCF Done:  E(RB3LYP) =  -1016.75936642     A.U. after    9 cycles
 SCF Done:  E(RB3LYP) =  -1016.75936718     A.U. after    7 cycles
 SCF Done:  E(RB3LYP) =  -1016.75936764     A.U. after    8 cycles
 SCF Done:  E(RB3LYP) =  -1016.75936779     A.U. after    7 cycles
 SCF Done:  E(RB3LYP) =  -1016.75936785     A.U. after    7 cycles
 SCF Done:  E(RB3LYP) =  -1016.75936785     A.U. after    7 cycles
 Optimization completed.
    -- Stationary point found.
 Normal termination of Gaussian 16 at Thu Dec 10 17:24:14 2020.

 --------------------------------------------------------------------
 #N Geom=AllCheck Guess=TCheck SCRF=Check GenChk RB3LYP/6-31G(d) Freq
 --------------------------------------------------------------------

 Structure from the checkpoint file:  "JID_5801.chk"
 -------------------------------
 CID_106823224_JID_5801_neutraal
 -------------------------------
 Charge =  0 Multiplicity = 1

 SCF Done:  E(RB3LYP) =  -1016.75936785     A.U. after    1 cycles

  Exact polarizability: 173.234   9.415 128.793  -9.393  11.620 120.861
 Approx polarizability: 230.144  22.663 203.270 -18.301  29.376 199.420

                      1                      2                      3
                      A                      A                      A
 Frequencies --     25.8350                38.2434                46.3361
 Red. masses --      5.2079                 4.4274                 4.4038
 Frc consts  --      0.0020                 0.0038                 0.0056
 IR Inten    --      0.1678                 0.3530                 0.3080

                      4                      5                      6
                      A                      A                      A
 Frequencies --     63.6659                81.9413               118.6045
 Red. masses --      2.8146                 4.5058                 3.9193
 Frc consts  --      0.0067                 0.0178                 0.0325
 IR Inten    --      0.5563                 0.6390                 1.4395

                      7                      8                      9
                      A                      A                      A
 Frequencies --    169.5620               187.6785               232.1779
 Red. masses --      3.0615                 3.5515                 3.2570
 Frc consts  --      0.0519                 0.0737                 0.1034
 IR Inten    --      1.1475                 1.5160                 0.5361

                     10                     11                     12
                      A                      A                      A
 Frequencies --    269.5092               299.2902               314.8797
 Red. masses --      1.5107                 3.5983                 2.2259
 Frc consts  --      0.0646                 0.1899                 0.1300
 IR Inten    --      0.6786                 1.7757                 1.2097

                     13                     14                     15
                      A                      A                      A
 Frequencies --    321.8769               347.3568               359.2759
 Red. masses --      2.0881                 2.0014                 1.7069
 Frc consts  --      0.1275                 0.1423                 0.1298
 IR Inten    --      0.1643                11.7364                24.6737

                     16                     17                     18
                      A                      A                      A
 Frequencies --    376.2252               403.7397               451.9434
 Red. masses --      1.6294                 2.4300                 2.8636
 Frc consts  --      0.1359                 0.2334                 0.3446
 IR Inten    --     22.6528                 2.2280                 2.3236

                     19                     20                     21
                      A                      A                      A
 Frequencies --    488.3860               510.0168               533.1779
 Red. masses --      3.2612                 2.9401                 3.3128
 Frc consts  --      0.4583                 0.4506                 0.5549
 IR Inten    --      9.4297                 0.7953                 4.7919

                     22                     23                     24
                      A                      A                      A
 Frequencies --    565.5480               605.1829               659.0653
 Red. masses --      3.6039                 3.4090                 3.4533
 Frc consts  --      0.6791                 0.7356                 0.8838
 IR Inten    --      1.1901                 1.0546                 1.7834

                     25                     26                     27
                      A                      A                      A
 Frequencies --    691.8455               707.4265               747.5674
 Red. masses --      2.7129                 1.3067                 7.3262
 Frc consts  --      0.7651                 0.3853                 2.4123
 IR Inten    --      5.4310                57.0907                 0.4681

                     28                     29                     30
                      A                      A                      A
 Frequencies --    793.7273               812.3871               825.8740
 Red. masses --      1.7713                 1.6931                 1.7486
 Frc consts  --      0.6575                 0.6584                 0.7027
 IR Inten    --      5.7255                 0.8991                 0.9572

                     31                     32                     33
                      A                      A                      A
 Frequencies --    836.9689               840.8792               860.0919
 Red. masses --      1.3278                 2.0898                 3.6812
 Frc consts  --      0.5480                 0.8706                 1.6044
 IR Inten    --     10.0791                 1.1519                10.5728

                     34                     35                     36
                      A                      A                      A
 Frequencies --    894.0809               905.4269               911.7303
 Red. masses --      2.1910                 2.1822                 1.3531
 Frc consts  --      1.0319                 1.0540                 0.6627
 IR Inten    --      3.6980                 1.9883                 0.8185

                     37                     38                     39
                      A                      A                      A
 Frequencies --    938.1607               972.1997               974.5747
 Red. masses --      2.3368                 2.4861                 2.0901
 Frc consts  --      1.2118                 1.3845                 1.1697
 IR Inten    --      5.6338                 6.1678                10.2336

                     40                     41                     42
                      A                      A                      A
 Frequencies --   1006.0851              1012.8666              1048.9630
 Red. masses --      2.3620                 2.3258                 2.2540
 Frc consts  --      1.4086                 1.4058                 1.4612
 IR Inten    --     23.8906                 5.3160                 2.5096

                     43                     44                     45
                      A                      A                      A
 Frequencies --   1078.1195              1090.7893              1104.0816
 Red. masses --      1.8482                 1.7847                 1.3006
 Frc consts  --      1.2657                 1.2511                 0.9341
 IR Inten    --     20.7207                21.9910                13.3021

                     46                     47                     48
                      A                      A                      A
 Frequencies --   1113.3009              1132.2786              1160.7668
 Red. masses --      1.2643                 1.7883                 2.4987
 Frc consts  --      0.9233                 1.3508                 1.9836
 IR Inten    --      0.4712                71.7058                36.8490

                     49                     50                     51
                      A                      A                      A
 Frequencies --   1170.8041              1178.8995              1214.9600
 Red. masses --      2.5219                 2.3597                 1.6593
 Frc consts  --      2.0368                 1.9322                 1.4431
 IR Inten    --     11.6233                79.4409                 8.4294

                     52                     53                     54
                      A                      A                      A
 Frequencies --   1227.8689              1237.8734              1253.4392
 Red. masses --      1.8934                 1.5018                 1.3883
 Frc consts  --      1.6819                 1.3559                 1.2851
 IR Inten    --     73.7922                 0.1358                13.8306

                     55                     56                     57
                      A                      A                      A
 Frequencies --   1278.7719              1284.5027              1299.2388
 Red. masses --      1.4310                 1.4619                 1.5745
 Frc consts  --      1.3787                 1.4211                 1.5659
 IR Inten    --      2.8086                17.6551                10.0020

                     58                     59                     60
                      A                      A                      A
 Frequencies --   1323.3517              1343.9155              1372.3844
 Red. masses --      1.6157                 1.1474                 1.4752
 Frc consts  --      1.6671                 1.2210                 1.6370
 IR Inten    --     50.9504                16.3373                45.1551

                     61                     62                     63
                      A                      A                      A
 Frequencies --   1385.0220              1402.8136              1407.0268
 Red. masses --      1.5094                 1.2300                 1.8580
 Frc consts  --      1.7059                 1.4261                 2.1672
 IR Inten    --      4.5735                41.1053                 2.3649

                     64                     65                     66
                      A                      A                      A
 Frequencies --   1425.6236              1428.2760              1444.6500
 Red. masses --      1.2598                 1.6844                 1.3103
 Frc consts  --      1.5086                 2.0245                 1.6111
 IR Inten    --      3.6477                20.6080                20.2921

                     67                     68                     69
                      A                      A                      A
 Frequencies --   1480.1385              1496.2320              1505.1600
 Red. masses --      1.0937                 3.9708                 1.1980
 Frc consts  --      1.4118                 5.2375                 1.5991
 IR Inten    --      4.0828                12.4184                 3.1879

                     70                     71                     72
                      A                      A                      A
 Frequencies --   1507.9184              1518.0087              1520.1571
 Red. masses --      1.1485                 1.0660                 1.0579
 Frc consts  --      1.5386                 1.4473                 1.4404
 IR Inten    --      5.6007                 1.0897                 2.1431

                     73                     74                     75
                      A                      A                      A
 Frequencies --   1521.2182              1540.7290              1596.7548
 Red. masses --      1.0871                 1.0730                 5.0382
 Frc consts  --      1.4822                 1.5008                 7.5684
 IR Inten    --     10.0512                 3.5349                 0.8838

                     76                     77                     78
                      A                      A                      A
 Frequencies --   2992.4126              3026.3765              3049.2864
 Red. masses --      1.0713                 1.0858                 1.0651
 Frc consts  --      5.6519                 5.8594                 5.8348
 IR Inten    --     63.9624                75.6593                15.1716

                     79                     80                     81
                      A                      A                      A
 Frequencies --   3052.8038              3053.7988              3082.6559
 Red. masses --      1.0363                 1.0630                 1.0589
 Frc consts  --      5.6902                 5.8407                 5.9285
 IR Inten    --     11.4577                26.7005                32.0889

                     82                     83                     84
                      A                      A                      A
 Frequencies --   3089.3496              3090.3945              3093.2383
 Red. masses --      1.0769                 1.0833                 1.0899
 Frc consts  --      6.0559                 6.0959                 6.1444
 IR Inten    --     12.2527                14.7934                19.8402

                     85                     86                     87
                      A                      A                      A
 Frequencies --   3112.4698              3119.7148              3134.4726
 Red. masses --      1.1004                 1.1016                 1.1032
 Frc consts  --      6.2808                 6.3167                 6.3862
 IR Inten    --     19.2344                49.5205                44.7823

                     88                     89                     90
                      A                      A                      A
 Frequencies --   3144.0662              3148.0260              3212.5418
 Red. masses --      1.1090                 1.1070                 1.0897
 Frc consts  --      6.4593                 6.4639                 6.6258
 IR Inten    --     14.8439                17.2101                 6.1098

                     91                     92                     93
                      A                      A                      A
 Frequencies --   3229.7423              3274.2244              3726.3858
 Red. masses --      1.0943                 1.0970                 1.0650
 Frc consts  --      6.7252                 6.9290                 8.7135
 IR Inten    --      7.0941                 1.0458               133.3159

 - Thermochemistry -
 -------------------
 Temperature   298.150 Kelvin.  Pressure   1.00000 Atm.
 Atom     1 has atomic number  6 and mass  12.00000

 Molecular mass:   226.10275 amu.
 Principal axes and moments of inertia in atomic units:
                           1         2         3
     Eigenvalues --  1687.573716167.470376765.01759
           X            0.99979   0.02042   0.00341
           Y           -0.02046   0.99972   0.01213
           Z           -0.00316  -0.01220   0.99992
 This molecule is an asymmetric top.
 Rotational symmetry number  1.
 Warning -- assumption of classical behavior for rotation
           may cause significant error
 Rotational temperatures (Kelvin)      0.05132     0.01404     0.01280
 Rotational constants (GHZ):           1.06943     0.29262     0.26678
 Zero-point vibrational energy     741250.5 (Joules/Mol)
                                  177.16313 (Kcal/Mol)
 Warning -- explicit consideration of  23 degrees of freedom as
           vibrations may cause significant error
 Vibrational temperatures:     37.17    55.02    66.67    91.60   117.90
          (Kelvin)            170.65   243.96   270.03   334.05   387.76
                              430.61   453.04   463.11   499.77   516.92
                              541.30   580.89   650.25   702.68   733.80
                              767.12   813.70   870.72   948.25   995.41
                             1017.83  1075.58  1142.00  1168.84  1188.25
                             1204.21  1209.84  1237.48  1286.38  1302.71
                             1311.78  1349.80  1398.78  1402.20  1447.53
                             1457.29  1509.22  1551.17  1569.40  1588.53
                             1601.79  1629.10  1670.08  1684.53  1696.17
                             1748.06  1766.63  1781.02  1803.42  1839.87
                             1848.11  1869.31  1904.01  1933.59  1974.56
                             1992.74  2018.34  2024.40  2051.15  2054.97
                             2078.53  2129.59  2152.74  2165.59  2169.56
                             2184.08  2187.17  2188.69  2216.77  2297.37
                             4305.41  4354.28  4387.24  4392.30  4393.74
                             4435.25  4444.89  4446.39  4450.48  4478.15
                             4488.57  4509.81  4523.61  4529.31  4622.13
                             4646.88  4710.88  5361.44

 Zero-point correction=                           0.282327 (Hartree/Particle)
 Thermal correction to Energy=                    0.297657
 Thermal correction to Enthalpy=                  0.298601
 Thermal correction to Gibbs Free Energy=         0.238275
 Sum of electronic and zero-point Energies=          -1016.477040
 Sum of electronic and thermal Energies=             -1016.461711
 Sum of electronic and thermal Enthalpies=           -1016.460767
 Sum of electronic and thermal Free Energies=        -1016.521093

                     E (Thermal)             CV                S
                      KCal/Mol        Cal/Mol-Kelvin    Cal/Mol-Kelvin
 Total                  186.783             58.900            126.968
 Electronic               0.000              0.000              0.000
 Translational            0.889              2.981             42.150
 Rotational               0.889              2.981             32.621
 Vibrational            185.005             52.939             52.198
 Vibration     1          0.593              1.985              6.126
 Vibration     2          0.594              1.982              5.348
 Vibration     3          0.595              1.979              4.968
 Vibration     4          0.597              1.972              4.340
 Vibration     5          0.600              1.962              3.844
 Vibration     6          0.609              1.934              3.123
 Vibration     7          0.625              1.880              2.440
 Vibration     8          0.632              1.857              2.251
 Vibration     9          0.653              1.792              1.862
 Vibration    10          0.674              1.729              1.599
 Vibration    11          0.692              1.675              1.421
 Vibration    12          0.702              1.645              1.337
 Vibration    13          0.707              1.632              1.301
 Vibration    14          0.725              1.581              1.178
 Vibration    15          0.734              1.556              1.125
 Vibration    16          0.747              1.521              1.054
 Vibration    17          0.769              1.462              0.949
 Vibration    18          0.811              1.357              0.790
 Vibration    19          0.844              1.276              0.688
 Vibration    20          0.865              1.228              0.634
 Vibration    21          0.888              1.177              0.580
 Vibration    22          0.921              1.106              0.513
 Vibration    23          0.964              1.021              0.441

 Optimization completed.
    -- Stationary point found.
 Normal termination of Gaussian 16 at Thu Dec 10 17:37:15 2020.

 ----------------------------------------------------------------------
 # B3LYP/6-311++G(d,p) empiricaldispersion=gd3bj scf=xqc pop=npa geom=c
 heck
 ----------------------------------------------------------------------

 ---------------------------------------
 CID_106823224_JID_5801_Energie_neutraal
 ---------------------------------------
 Structure from the checkpoint file:  "JID_5801.chk"
 Charge =  0 Multiplicity = 1

 SCF Done:  E(RB3LYP) =  -1016.96699570     A.U. after   16 cycles
 Normal termination of Gaussian 16 at Thu Dec 10 17:43:47 2020.

 ----------------------------------------------------------------------
 # B3LYP/6-311++G(d,p) empiricaldispersion=gd3bj scf=xqc pop=npa geom=c
 heck
 ----------------------------------------------------------------------

 -------------------------------------
 CID_106823224_JID_5801_Energie_kation
 -------------------------------------
 Structure from the checkpoint file:  "JID_5801.chk"
 Charge =  1 Multiplicity = 2

 SCF Done:  E(UB3LYP) =  -1016.66745195     A.U. after   30 cycles
 Normal termination of Gaussian 16 at Thu Dec 10 17:58:16 2020.
 Gaussian 16:  ES64L-G16RevA.03 25-Dec-2016

 ----------------------------------------------------------------------
 # B3LYP/6-311++G(d,p) empiricaldispersion=gd3bj scf=xqc pop=npa geom=c
 heck
 ----------------------------------------------------------------------

 ------------------------------------
 CID_106823224_JID_5801_Energie_anion
 ------------------------------------
 Structure from the checkpoint file:  "JID_5801.chk"
 Charge = -1 Multiplicity = 2

                         Standard orientation:
 ---------------------------------------------------------------------
 Center     Atomic      Atomic             Coordinates (Angstroms)
 Number     Number       Type             X           Y           Z
 ---------------------------------------------------------------------
      1          6           0       -3.591606   -2.171043    0.001909
      2          6           0       -4.191939   -0.794388    0.280115
      3          8           0       -3.239699    0.242808    0.458898
      4          6           0       -2.565901    0.654402   -0.721249
      5          6           0       -1.815635    1.975667   -0.449831
      6          6           0       -0.504146    1.179127   -0.242273
      7          6           0       -1.190252   -0.031738   -0.954638
      8          6           0       -0.189256    0.935365    1.240339
      9          6           0        0.723290   -0.272753    1.543140
     10          6           0        2.027641   -0.287075    0.791647
     11          6           0        3.116257    0.537620    0.939246
     12          6           0        4.171771    0.262268    0.015530
     13          6           0        3.879220   -0.772663   -0.829011
     14         16           0        2.304362   -1.425451   -0.505555
     15          8           0        0.573881    1.789361   -0.928630
     16          1           0       -3.085162   -2.205112   -0.967617
     17          1           0       -4.383309   -2.929475   -0.005198
     18          1           0       -2.866747   -2.436852    0.778939
     19          1           0       -4.889610   -0.519726   -0.528331
     20          1           0       -4.762966   -0.818628    1.214269
     21          1           0       -3.266089    0.647236   -1.568204
     22          1           0       -1.737705    2.592862   -1.348844
     23          1           0       -2.187850    2.576192    0.385417
     24          1           0       -1.057128   -1.030707   -0.533415
     25          1           0       -0.914276   -0.041956   -2.012875
     26          1           0        0.265497    1.853720    1.633131
     27          1           0       -1.130178    0.778855    1.777563
     28          1           0        0.935279   -0.284088    2.619475
     29          1           0        0.174861   -1.197667    1.335178
     30          1           0        3.156995    1.323933    1.685941
     31          1           0        5.105842    0.812111   -0.014867
     32          1           0        4.490988   -1.190291   -1.616645
     33          1           0        1.391667    1.330727   -0.676720
 ---------------------------------------------------------------------

 SCF Done:  E(UB3LYP) =  -1016.95365194     A.U. after   33 cycles
 SCF Done:  E(UB3LYP) =  -1016.95365194     a.u. after    1 cycles

 The electronic state is 2-A.
 Alpha  occ. eigenvalues --  -88.76936 -19.02730 -19.01487 -10.12741 -10.12645
 Alpha  occ. eigenvalues --  -10.11937 -10.09558 -10.09072 -10.07947 -10.07597
 Alpha  occ. eigenvalues --  -10.06968 -10.06771 -10.06734 -10.06442 -10.06211
 Alpha  occ. eigenvalues --   -7.85570  -5.81849  -5.81487  -5.81188  -0.94124
 Alpha  occ. eigenvalues --   -0.92171  -0.77953  -0.74412  -0.68594  -0.65262
 Alpha  occ. eigenvalues --   -0.63179  -0.61709  -0.57410  -0.56045  -0.53473
 Alpha  occ. eigenvalues --   -0.49464  -0.46131  -0.45044  -0.43540  -0.41829
 Alpha  occ. eigenvalues --   -0.40456  -0.39215  -0.37330  -0.36404  -0.35008
 Alpha  occ. eigenvalues --   -0.34225  -0.32794  -0.30973  -0.30183  -0.30042
 Alpha  occ. eigenvalues --   -0.29233  -0.28549  -0.28334  -0.27595  -0.26729
 Alpha  occ. eigenvalues --   -0.26021  -0.25121  -0.24680  -0.23716  -0.23365
 Alpha  occ. eigenvalues --   -0.21227  -0.20326  -0.17012  -0.15600  -0.15409
 Alpha  occ. eigenvalues --   -0.13257   0.04495
 Alpha virt. eigenvalues --    0.06033   0.06826   0.07659   0.07790   0.08375
 Alpha virt. eigenvalues --    0.08513   0.09380   0.09646   0.10606   0.10966
 Alpha virt. eigenvalues --    0.11089   0.11885   0.12003   0.12596   0.13327

  Beta  occ. eigenvalues --  -88.76916 -19.02719 -19.01484 -10.12742 -10.12640
  Beta  occ. eigenvalues --  -10.11915 -10.09410 -10.08945 -10.07942 -10.07597
  Beta  occ. eigenvalues --  -10.06945 -10.06768 -10.06717 -10.06438 -10.06173
  Beta  occ. eigenvalues --   -7.85551  -5.81842  -5.81480  -5.81122  -0.94107
  Beta  occ. eigenvalues --   -0.92163  -0.77800  -0.74403  -0.68489  -0.65210
  Beta  occ. eigenvalues --   -0.63074  -0.61559  -0.57391  -0.55994  -0.53408
  Beta  occ. eigenvalues --   -0.49406  -0.45976  -0.45018  -0.43391  -0.41790
  Beta  occ. eigenvalues --   -0.40380  -0.39185  -0.37291  -0.36359  -0.34977
  Beta  occ. eigenvalues --   -0.34170  -0.32700  -0.30911  -0.30144  -0.29982
  Beta  occ. eigenvalues --   -0.29190  -0.28499  -0.28231  -0.27378  -0.26690
  Beta  occ. eigenvalues --   -0.25924  -0.25072  -0.24616  -0.23643  -0.23324
  Beta  occ. eigenvalues --   -0.21189  -0.20268  -0.16983  -0.15550  -0.15136
  Beta  occ. eigenvalues --   -0.12608
  Beta virt. eigenvalues --    0.06626   0.06950   0.07538   0.08114   0.08328
  Beta virt. eigenvalues --    0.08716   0.08844   0.09717   0.10097   0.10868
  Beta virt. eigenvalues --    0.11108   0.11296   0.11959   0.12177   0.12878

 Mulliken charges and spin densities:
               1          2
     1  C    0.371712  -0.848727
     2  C    0.308505  -0.437739
     3  O   -0.051600   0.012757
     4  C   -0.694103   0.666305
     5  C    0.211391  -0.895017
     6  C   -0.212951   0.609614
     7  C    0.018394  -0.543701
     8  C   -0.185347  -0.252812
     9  C    1.331870  -1.671814
    10  C   -0.539365   0.746307
    11  C   -0.587989   0.419355
    12  C    0.403108  -0.828481
    13  C   -0.408783   0.221506
    14  S   -0.163369   0.143736
    15  O   -0.226968   0.003626
    16  H   -0.222643   0.360998
    17  H   -0.806529   0.956203
    18  H    0.098275   0.059232
    19  H    0.051535   0.057964
    20  H   -0.404452   0.562696
    21  H   -0.080407   0.216685
    22  H    0.124417   0.034131
    23  H    0.072688   0.078592
    24  H    0.653052  -0.505524
    25  H    0.129884   0.031338
    26  H    0.194791   0.009389
    27  H    0.155836   0.042190
    28  H   -0.478841   0.697032
    29  H   -0.019204   0.156255
    30  H   -0.322716   0.475906
    31  H   -0.105027   0.246172
    32  H    0.020964   0.192419
    33  H    0.363872  -0.016591
 Sum of Mulliken charges =  -1.00000   1.00000

 Dipole moment (field-independent basis, Debye):
    X=              2.8760    Y=              3.0362    Z=             -3.3893  Tot=              5.3831
 Quadrupole moment (field-independent basis, Debye-Ang):
   XX=           -184.6753   YY=           -139.3200   ZZ=           -135.6643
   XY=            -19.1936   XZ=             -1.5952   YZ=              3.4027

 Summary of Natural Population Analysis:

                                       Natural Population
                Natural  -----------------------------------------------
    Atom  No    Charge         Core      Valence    Rydberg      Total
 -----------------------------------------------------------------------
      C    1   -0.30188      0.99967     2.29702    0.00520     3.30188
      C    2   -0.00636      0.99959     1.99366    0.01311     3.00636
      O    3   -0.30497      0.99987     3.29492    0.01018     4.30497
      C    4    0.06351      0.99956     1.92230    0.01463     2.93649
      C    5   -0.19571      0.99958     2.18746    0.00867     3.19571
      C    6    0.13048      0.99949     1.85286    0.01717     2.86952
      C    7   -0.21359      0.99957     2.20544    0.00857     3.21359
      C    8   -0.19780      0.99956     2.18797    0.01027     3.19780
      C    9   -0.20987      0.99957     2.19833    0.01197     3.20987
      C   10   -0.09018      0.99951     2.07521    0.01546     3.09018
      C   11   -0.13838      0.99945     2.12816    0.01077     3.13838
      C   12   -0.13231      0.99953     2.12142    0.01136     3.13231
      C   13   -0.18245      0.99954     2.17202    0.01089     3.18245
      S   14    0.21021      4.99939     2.77063    0.01978     7.78979
      O   15   -0.38001      0.99988     3.37407    0.00606     4.38001
      H   16    0.09651      0.00000     0.40222    0.00127     0.40349
      H   17    0.10341      0.00000     0.39435    0.00224     0.39659
      H   18    0.10121      0.00000     0.39743    0.00136     0.39879
      H   19    0.07414      0.00000     0.42413    0.00173     0.42586
      H   20    0.08909      0.00000     0.40951    0.00140     0.41091
      H   21    0.07964      0.00000     0.41904    0.00132     0.42036
      H   22    0.10535      0.00000     0.39367    0.00098     0.39465
      H   23    0.10304      0.00000     0.39585    0.00111     0.39696
      H   24    0.10378      0.00000     0.39490    0.00132     0.39622
      H   25    0.10579      0.00000     0.39312    0.00108     0.39421
      H   26    0.09947      0.00000     0.39927    0.00126     0.40053
      H   27    0.11239      0.00000     0.38582    0.00179     0.38761
      H   28    0.11279      0.00000     0.38473    0.00249     0.38721
      H   29    0.10456      0.00000     0.39386    0.00159     0.39544
      H   30    0.10807      0.00000     0.39078    0.00115     0.39193
      H   31    0.10411      0.00000     0.39506    0.00083     0.39589
      H   32    0.10535      0.00000     0.39387    0.00078     0.39465
      H   33    0.24060      0.00000     0.25643    0.00297     0.25940
 =======================================================================
   * Total *    0.00000     18.99376    41.80550    0.20073    61.00000

 Normal termination of Gaussian 16 at Thu Dec 10 18:11:52 2020.
