 Gaussian 16, Revision A.03,

 -----------------------------------------------------------
 # opt freq B3LYP/6-31G(d) empiricaldispersion=gd3bj scf=xqc
 -----------------------------------------------------------

 -------------------------------
 CID_150136299_JID_5068_neutraal
 -------------------------------
 Symbolic Z-matrix:
 Charge =  0 Multiplicity = 1

 SCF Done:  E(RB3LYP) =  -678.587846431     A.U. after   16 cycles
 SCF Done:  E(RB3LYP) =  -678.599122514     A.U. after   15 cycles
 SCF Done:  E(RB3LYP) =  -678.603160793     A.U. after   15 cycles
 SCF Done:  E(RB3LYP) =  -678.605000895     A.U. after   14 cycles
 SCF Done:  E(RB3LYP) =  -678.606440937     A.U. after   14 cycles
 SCF Done:  E(RB3LYP) =  -678.607610351     A.U. after   15 cycles
 SCF Done:  E(RB3LYP) =  -678.608186448     A.U. after   15 cycles
 SCF Done:  E(RB3LYP) =  -678.608496735     A.U. after   15 cycles
 SCF Done:  E(RB3LYP) =  -678.608605619     A.U. after   13 cycles
 SCF Done:  E(RB3LYP) =  -678.608624796     A.U. after   12 cycles
 SCF Done:  E(RB3LYP) =  -678.608634729     A.U. after   11 cycles
 SCF Done:  E(RB3LYP) =  -678.608638012     A.U. after   10 cycles
 SCF Done:  E(RB3LYP) =  -678.608640642     A.U. after   10 cycles
 SCF Done:  E(RB3LYP) =  -678.608641458     A.U. after   10 cycles
 SCF Done:  E(RB3LYP) =  -678.608641501     A.U. after    8 cycles
 Optimization completed.
    -- Stationary point found.

 1\1\GINC-NODE360\FOpt\RB3LYP\6-31G(d)\C9H12N6\VSC10255\10-Dec-2020\0\\
 # opt freq B3LYP/6-31G(d) empiricaldispersion=gd3bj scf=xqc\\CID_15013
 6299_JID_5068_neutraal\\0,1\C,0.4875160506,0.8450135946,-0.1368460018\
 C,0.320030766,-0.5193478631,0.5866665016\N,-0.847060931,-0.7816857082,
 -0.2647397548\C,-0.6025071672,0.3738719038,-1.1366610974\C,-1.30076602
 91,-2.0187524516,-0.6353843629\C,-2.1187440656,-2.185488437,-1.7751420
 942\C,-2.548684348,-3.4647650249,-2.0845627413\C,-2.1707067134,-4.5426
 291207,-1.2753395919\C,-1.3729457053,-4.2770504438,-0.1659428977\N,-0.

 Normal termination of Gaussian 16 at Thu Dec 10 14:45:33 2020.

 --------------------------------------------------------------------
 #N Geom=AllCheck Guess=TCheck SCRF=Check GenChk RB3LYP/6-31G(d) Freq
 --------------------------------------------------------------------

 Structure from the checkpoint file:  "JID_5068.chk"
 -------------------------------
 CID_150136299_JID_5068_neutraal
 -------------------------------
 Charge =  0 Multiplicity = 1

 SCF Done:  E(RB3LYP) =  -678.608641501     A.U. after    1 cycles

  Exact polarizability: 193.958   4.446 142.352   5.312   5.874  78.438
 Approx polarizability: 285.752   6.862 210.108  25.252  16.062 134.006

                      1                      2                      3
                      A                      A                      A
 Frequencies --     21.3557                36.5797                68.8540
 Red. masses --      8.1815                 4.4840                 4.4253
 Frc consts  --      0.0022                 0.0035                 0.0124
 IR Inten    --      0.0512                 0.8948                 1.5225

                      4                      5                      6
                      A                      A                      A
 Frequencies --     70.5499                94.0081               111.1905
 Red. masses --      3.8354                 3.9209                 2.9708
 Frc consts  --      0.0112                 0.0204                 0.0216
 IR Inten    --      1.1132                 1.9051                 0.4438

                      7                      8                      9
                      A                      A                      A
 Frequencies --    156.3261               162.9888               216.1223
 Red. masses --      2.1544                 3.2965                 3.6767
 Frc consts  --      0.0310                 0.0516                 0.1012
 IR Inten    --      5.0099                 3.3888                 1.9712

                     10                     11                     12
                      A                      A                      A
 Frequencies --    244.1071               285.1698               325.2058
 Red. masses --      4.7932                 5.3092                 8.6570
 Frc consts  --      0.1683                 0.2544                 0.5394
 IR Inten    --      8.7749                 3.1780                 0.4713

                     13                     14                     15
                      A                      A                      A
 Frequencies --    362.6675               406.8052               457.7718
 Red. masses --      4.1011                 5.1204                 3.8177
 Frc consts  --      0.3178                 0.4993                 0.4714
 IR Inten    --      5.9163                 3.1155                 1.0256

                     16                     17                     18
                      A                      A                      A
 Frequencies --    514.7865               566.1848               602.9072
 Red. masses --      3.9411                13.4035                 4.6847
 Frc consts  --      0.6154                 2.5315                 1.0033
 IR Inten    --      4.0389                 8.3127                 9.3469

                     19                     20                     21
                      A                      A                      A
 Frequencies --    633.4722               678.5728               713.0701
 Red. masses --      5.8022                 6.5338                 4.6009
 Frc consts  --      1.3718                 1.7726                 1.3784
 IR Inten    --     10.1856                17.3380                12.2299

                     22                     23                     24
                      A                      A                      A
 Frequencies --    750.9964               766.5114               798.7716
 Red. masses --      1.9261                 1.2536                 1.9854
 Frc consts  --      0.6400                 0.4340                 0.7463
 IR Inten    --      6.2176                 7.0693                36.6204

                     25                     26                     27
                      A                      A                      A
 Frequencies --    856.5383               861.3703               868.0125
 Red. masses --      3.1936                 1.2827                 1.2852
 Frc consts  --      1.3805                 0.5607                 0.5705
 IR Inten    --      0.7622                 0.1176                 0.9846

                     28                     29                     30
                      A                      A                      A
 Frequencies --    885.8808               925.7871               949.7146
 Red. masses --      3.6242                 3.0680                 2.4627
 Frc consts  --      1.6758                 1.5493                 1.3087
 IR Inten    --     18.3068                 8.9796                 1.3923

                     31                     32                     33
                      A                      A                      A
 Frequencies --    985.0971               987.1232               991.0199
 Red. masses --      2.2025                 1.5189                 2.4920
 Frc consts  --      1.2593                 0.8720                 1.4420
 IR Inten    --     19.5584                 1.3606                 3.7415

                     34                     35                     36
                      A                      A                      A
 Frequencies --   1005.6126              1040.6775              1102.5553
 Red. masses --      5.5050                 2.5637                 2.3436
 Frc consts  --      3.2800                 1.6359                 1.6785
 IR Inten    --     15.6435                13.9471                 2.8385

                     37                     38                     39
                      A                      A                      A
 Frequencies --   1106.3196              1139.3526              1149.5890
 Red. masses --      2.8392                 1.8959                 1.1231
 Frc consts  --      2.0475                 1.4501                 0.8745
 IR Inten    --      4.4147                 7.5057                 0.3572

                     40                     41                     42
                      A                      A                      A
 Frequencies --   1157.6195              1177.0191              1199.7963
 Red. masses --      1.7729                 2.1681                 1.4671
 Frc consts  --      1.3998                 1.7697                 1.2443
 IR Inten    --     10.3844                34.7750                12.0351

                     43                     44                     45
                      A                      A                      A
 Frequencies --   1213.8098              1217.4649              1242.1230
 Red. masses --      1.2332                 1.8090                 1.2985
 Frc consts  --      1.0705                 1.5798                 1.1803
 IR Inten    --      1.4385                21.2448                 6.0621

                     46                     47                     48
                      A                      A                      A
 Frequencies --   1261.4807              1284.7875              1297.7193
 Red. masses --      1.8506                 1.4923                 1.8110
 Frc consts  --      1.7351                 1.4513                 1.7969
 IR Inten    --      7.6474                10.0333                56.3242

                     49                     50                     51
                      A                      A                      A
 Frequencies --   1303.1233              1336.4598              1355.3535
 Red. masses --      1.5608                 3.2699                 1.4857
 Frc consts  --      1.5616                 3.4411                 1.6080
 IR Inten    --      1.4408                 7.2026                27.3883

                     52                     53                     54
                      A                      A                      A
 Frequencies --   1382.5010              1434.9348              1485.3083
 Red. masses --      1.6989                 2.9100                 3.5602
 Frc consts  --      1.9131                 3.5302                 4.6276
 IR Inten    --     32.6639                64.8736                 3.3170

                     55                     56                     57
                      A                      A                      A
 Frequencies --   1505.1784              1518.7607              1534.0239
 Red. masses --      1.3894                 1.1207                 1.1266
 Frc consts  --      1.8547                 1.5230                 1.5620
 IR Inten    --    260.1181                18.0730                31.0861

                     58                     59                     60
                      A                      A                      A
 Frequencies --   1539.1211              1540.0665              1564.8039
 Red. masses --      2.0499                 1.1536                 1.1594
 Frc consts  --      2.8611                 1.6121                 1.6726
 IR Inten    --    251.5770                29.1242                 3.4875

                     61                     62                     63
                      A                      A                      A
 Frequencies --   1630.0542              1659.6462              2227.1932
 Red. masses --      6.3947                 5.7704                13.9545
 Frc consts  --     10.0110                 9.3646                40.7831
 IR Inten    --    105.7476               265.9392               565.1819

                     64                     65                     66
                      A                      A                      A
 Frequencies --   2999.9589              3022.0399              3050.5430
 Red. masses --      1.0702                 1.0626                 1.0623
 Frc consts  --      5.6746                 5.7178                 5.8245
 IR Inten    --     33.5800                65.0297                38.3350

                     67                     68                     69
                      A                      A                      A
 Frequencies --   3078.5166              3095.9603              3102.0232
 Red. masses --      1.1025                 1.0925                 1.0986
 Frc consts  --      6.1561                 6.1697                 6.2285
 IR Inten    --     39.6509                23.7617                21.2517

                     70                     71                     72
                      A                      A                      A
 Frequencies --   3109.2235              3161.6460              3192.0812
 Red. masses --      1.0662                 1.1099                 1.0874
 Frc consts  --      6.0728                 6.5365                 6.5282
 IR Inten    --     52.1091                25.5364                11.3609

                     73                     74                     75
                      A                      A                      A
 Frequencies --   3213.8853              3220.0837              3470.3901
 Red. masses --      1.0912                 1.0964                 1.0740
 Frc consts  --      6.6409                 6.6982                 7.6208
 IR Inten    --     16.1084                 9.6980                41.7262

 - Thermochemistry -
 -------------------
 Temperature   298.150 Kelvin.  Pressure   1.00000 Atm.
 Atom     1 has atomic number  6 and mass  12.00000

 Molecular mass:   204.11234 amu.
 Principal axes and moments of inertia in atomic units:
                           1         2         3
     Eigenvalues --  1797.609856004.462227566.96647
           X            0.99969   0.02411  -0.00657
           Y           -0.02409   0.99971   0.00271
           Z            0.00664  -0.00255   0.99997
 This molecule is an asymmetric top.
 Rotational symmetry number  1.
 Warning -- assumption of classical behavior for rotation
           may cause significant error
 Rotational temperatures (Kelvin)      0.04818     0.01442     0.01145
 Rotational constants (GHZ):           1.00397     0.30057     0.23850
 Zero-point vibrational energy     572319.4 (Joules/Mol)
                                  136.78761 (Kcal/Mol)
 Warning -- explicit consideration of  18 degrees of freedom as
           vibrations may cause significant error
 Vibrational temperatures:     30.73    52.63    99.07   101.51   135.26
          (Kelvin)            159.98   224.92   234.50   310.95   351.22
                              410.30   467.90   521.80   585.30   658.63
                              740.66   814.61   867.45   911.43   976.31
                             1025.95  1080.52  1102.84  1149.25  1232.37
                             1239.32  1248.88  1274.58  1332.00  1366.43
                             1417.34  1420.25  1425.86  1446.85  1497.30
                             1586.33  1591.75  1639.27  1654.00  1665.56
                             1693.47  1726.24  1746.40  1751.66  1787.14
                             1814.99  1848.52  1867.13  1874.90  1922.87
                             1950.05  1989.11  2064.55  2137.03  2165.62
                             2185.16  2207.12  2214.45  2215.81  2251.40
                             2345.28  2387.86  3204.43  4316.27  4348.04
                             4389.05  4429.30  4454.40  4463.12  4473.48
                             4548.90  4592.69  4624.06  4632.98  4993.12

 Zero-point correction=                           0.217985 (Hartree/Particle)
 Thermal correction to Energy=                    0.231659
 Thermal correction to Enthalpy=                  0.232603
 Thermal correction to Gibbs Free Energy=         0.174840
 Sum of electronic and zero-point Energies=           -678.390657
 Sum of electronic and thermal Energies=              -678.376983
 Sum of electronic and thermal Enthalpies=            -678.376038
 Sum of electronic and thermal Free Energies=         -678.433801

                     E (Thermal)             CV                S
                      KCal/Mol        Cal/Mol-Kelvin    Cal/Mol-Kelvin
 Total                  145.368             49.771            121.572
 Electronic               0.000              0.000              0.000
 Translational            0.889              2.981             41.845
 Rotational               0.889              2.981             32.768
 Vibrational            143.591             43.810             46.959
 Vibration     1          0.593              1.985              6.504
 Vibration     2          0.594              1.982              5.436
 Vibration     3          0.598              1.969              4.186
 Vibration     4          0.598              1.968              4.138
 Vibration     5          0.603              1.953              3.575
 Vibration     6          0.607              1.940              3.248
 Vibration     7          0.620              1.896              2.594
 Vibration     8          0.623              1.888              2.515
 Vibration     9          0.645              1.816              1.991
 Vibration    10          0.659              1.773              1.773
 Vibration    11          0.683              1.701              1.502
 Vibration    12          0.709              1.625              1.284
 Vibration    13          0.737              1.549              1.111
 Vibration    14          0.772              1.455              0.938
 Vibration    15          0.816              1.344              0.773
 Vibration    16          0.870              1.217              0.622
 Vibration    17          0.922              1.104              0.512
 Vibration    18          0.961              1.026              0.445

 Optimization completed.
    -- Stationary point found.

 1\1\GINC-NODE360\Freq\RB3LYP\6-31G(d)\C9H12N6\VSC10255\10-Dec-2020\0\\
 #N Geom=AllCheck Guess=TCheck SCRF=Check GenChk RB3LYP/6-31G(d) Freq\\
 CID_150136299_JID_5068_neutraal\\0,1\C,0.4875160506,0.8450135946,-0.13
 68460018\C,0.320030766,-0.5193478631,0.5866665016\N,-0.847060931,-0.78
 16857082,-0.2647397548\C,-0.6025071672,0.3738719038,-1.1366610974\C,-1
 .3007660291,-2.0187524516,-0.6353843629\C,-2.1187440656,-2.185488437,-
 1.7751420942\C,-2.548684348,-3.4647650249,-2.0845627413\C,-2.170706713
 4,-4.5426291207,-1.2753395919\C,-1.3729457053,-4.2770504438,-0.1659428

 Normal termination of Gaussian 16 at Thu Dec 10 14:52:07 2020.

 ----------------------------------------------------------------------
 # B3LYP/6-311++G(d,p) empiricaldispersion=gd3bj scf=xqc pop=npa geom=c
 heck
 ----------------------------------------------------------------------

 ---------------------------------------
 CID_150136299_JID_5068_Energie_neutraal
 ---------------------------------------
 Structure from the checkpoint file:  "JID_5068.chk"
 Charge =  0 Multiplicity = 1

 SCF Done:  E(RB3LYP) =  -678.791402849     A.U. after   16 cycles
 Normal termination of Gaussian 16 at Thu Dec 10 14:54:49 2020.

 ----------------------------------------------------------------------
 # B3LYP/6-311++G(d,p) empiricaldispersion=gd3bj scf=xqc pop=npa geom=c
 heck
 ----------------------------------------------------------------------

 -------------------------------------
 CID_150136299_JID_5068_Energie_kation
 -------------------------------------
 Structure from the checkpoint file:  "JID_5068.chk"
 Charge =  1 Multiplicity = 2

 SCF Done:  E(UB3LYP) =  -678.511508611     A.U. after   28 cycles
 Normal termination of Gaussian 16 at Thu Dec 10 15:01:48 2020.
 Gaussian 16:  ES64L-G16RevA.03 25-Dec-2016

 ------------------------------------
 CID_150136299_JID_5068_Energie_anion
 ------------------------------------
 Structure from the checkpoint file:  "JID_5068.chk"
 Charge = -1 Multiplicity = 2

                         Standard orientation:
 ---------------------------------------------------------------------
 Center     Atomic      Atomic             Coordinates (Angstroms)
 Number     Number       Type             X           Y           Z
 ---------------------------------------------------------------------
      1          6           0       -3.569798   -2.331406    0.236835
      2          6           0       -2.121208   -2.011505   -0.223874
      3          7           0       -2.504015   -0.596583   -0.309151
      4          6           0       -3.804200   -0.800439    0.341487
      5          6           0       -1.657810    0.468250   -0.155439
      6          6           0       -2.148642    1.747628    0.188382
      7          6           0       -1.235571    2.780459    0.317607
      8          6           0        0.126901    2.537545    0.107457
      9          6           0        0.513133    1.246238   -0.240489
     10          7           0       -0.353736    0.229951   -0.367265
     11          6           0        1.954769    0.890963   -0.528439
     12          7           0        2.277298   -0.378645    0.146454
     13          7           0        3.416137   -0.993350   -0.524987
     14          7           0        4.424311   -0.989462    0.208620
     15          7           0        5.429763   -1.056880    0.743748
     16          1           0       -3.657672   -2.886692    1.172094
     17          1           0       -4.178864   -2.814960   -0.529699
     18          1           0       -1.349586   -2.197518    0.533853
     19          1           0       -1.793445   -2.445722   -1.173514
     20          1           0       -4.657780   -0.393706   -0.213041
     21          1           0       -3.835815   -0.418122    1.372054
     22          1           0       -3.210522    1.906919    0.341936
     23          1           0       -1.578033    3.775499    0.588494
     24          1           0        0.864502    3.325643    0.213350
     25          1           0        2.098349    0.807082   -1.617702
     26          1           0        2.625577    1.675316   -0.163609
     27          1           0        1.499543   -1.005348   -0.067315
 ---------------------------------------------------------------------

 SCF Done:  E(UB3LYP) =  -678.789879796     A.U. after   33 cycles
 SCF Done:  E(UB3LYP) =  -678.789879796     a.u. after    1 cycles

 The electronic state is 2-A.
 Alpha  occ. eigenvalues --  -14.32405 -14.23948 -14.23540 -14.22720 -14.21399
 Alpha  occ. eigenvalues --  -14.18955 -10.13639 -10.11116 -10.10654 -10.10233
 Alpha  occ. eigenvalues --  -10.08586 -10.08398 -10.08077 -10.06722 -10.06483
 Alpha  occ. eigenvalues --   -0.99985  -0.88149  -0.86805  -0.82506  -0.74995
 Alpha  occ. eigenvalues --   -0.69654  -0.69056  -0.62505  -0.59908  -0.56909
 Alpha  occ. eigenvalues --   -0.52635  -0.49865  -0.46639  -0.44170  -0.42260
 Alpha  occ. eigenvalues --   -0.40315  -0.39591  -0.38490  -0.38461  -0.37146
 Alpha  occ. eigenvalues --   -0.34291  -0.33105  -0.32139  -0.31095  -0.30772
 Alpha  occ. eigenvalues --   -0.30431  -0.29568  -0.28890  -0.27353  -0.26721
 Alpha  occ. eigenvalues --   -0.25447  -0.24398  -0.22591  -0.19520  -0.17334
 Alpha  occ. eigenvalues --   -0.16391  -0.12753  -0.11901  -0.10691   0.04123
 Alpha virt. eigenvalues --    0.05640   0.06867   0.07195   0.08076   0.08181
 Alpha virt. eigenvalues --    0.09290   0.09628   0.09998   0.10987   0.11431
 Alpha virt. eigenvalues --    0.11794   0.12536   0.12682   0.13555   0.13875

  Beta  occ. eigenvalues --  -14.32120 -14.24006 -14.23108 -14.22726 -14.21278
  Beta  occ. eigenvalues --  -14.18835 -10.13652 -10.11084 -10.10643 -10.10160
  Beta  occ. eigenvalues --  -10.08588 -10.08372 -10.07992 -10.06669 -10.06511
  Beta  occ. eigenvalues --   -0.99406  -0.88100  -0.86528  -0.82364  -0.74739
  Beta  occ. eigenvalues --   -0.69527  -0.68933  -0.62393  -0.59842  -0.56780
  Beta  occ. eigenvalues --   -0.52577  -0.49708  -0.46558  -0.44059  -0.42013
  Beta  occ. eigenvalues --   -0.40289  -0.39518  -0.38401  -0.37867  -0.36568
  Beta  occ. eigenvalues --   -0.33796  -0.32938  -0.31666  -0.30947  -0.30484
  Beta  occ. eigenvalues --   -0.30217  -0.29480  -0.28804  -0.27247  -0.26596
  Beta  occ. eigenvalues --   -0.25358  -0.24356  -0.21828  -0.19308  -0.16825
  Beta  occ. eigenvalues --   -0.16245  -0.12591  -0.11756  -0.10533
  Beta virt. eigenvalues --    0.06331   0.07127   0.07701   0.08261   0.08626
  Beta virt. eigenvalues --    0.09306   0.09386   0.09713   0.10593   0.11210
  Beta virt. eigenvalues --    0.11612   0.11866   0.12659   0.12794   0.13635

 Mulliken charges and spin densities:
               1          2
     1  C    0.709329  -1.144101
     2  C   -0.416034   0.231702
     3  N    0.053895   0.122554
     4  C    0.453163  -0.637067
     5  C   -0.162237  -0.527999
     6  C    0.760308   0.117970
     7  C   -1.000348   0.078730
     8  C   -0.196223   0.251688
     9  C   -0.363610   0.485749
    10  N   -0.128388   0.102638
    11  C    0.110813  -0.704706
    12  N   -0.302002   0.025355
    13  N   -0.459373  -0.056075
    14  N    0.469968   0.115733
    15  N   -0.200290   0.263538
    16  H   -0.248214   0.397620
    17  H   -0.142395   0.282354
    18  H    0.223938  -0.081483
    19  H    0.000282   0.167592
    20  H   -0.202723   0.360887
    21  H   -0.165912   0.305561
    22  H   -0.178688   0.355744
    23  H   -0.030410   0.170644
    24  H    0.099842   0.039034
    25  H    0.021625   0.133967
    26  H    0.165327   0.017909
    27  H    0.128357   0.124461
 Sum of Mulliken charges =  -1.00000   1.00000

 Dipole moment (field-independent basis, Debye):
    X=             -2.4106    Y=              2.7738    Z=             -1.0269  Tot=              3.8156
 Quadrupole moment (field-independent basis, Debye-Ang):
   XX=           -184.2531   YY=           -111.9056   ZZ=           -110.8712
   XY=              5.8290   XZ=             -1.0852   YZ=              1.1016

 Summary of Natural Population Analysis:

                                       Natural Population
                Natural  -----------------------------------------------
    Atom  No    Charge         Core      Valence    Rydberg      Total
 -----------------------------------------------------------------------
      C    1   -0.19767      0.99963     2.19073    0.00731     3.19767
      C    2   -0.07109      0.99966     2.06269    0.00874     3.07109
      N    3   -0.25292      0.99964     2.74209    0.01118     3.75292
      C    4   -0.07473      0.99966     2.06506    0.01001     3.07473
      C    5    0.21029      0.99952     1.77573    0.01447     2.78971
      C    6   -0.14070      0.99953     2.13291    0.00826     3.14070
      C    7   -0.06300      0.99958     2.05358    0.00984     3.06300
      C    8   -0.15365      0.99950     2.14485    0.00929     3.15365
      C    9    0.12600      0.99954     1.86109    0.01337     2.87400
      N   10   -0.25849      0.99963     2.74841    0.01045     3.75849
      C   11   -0.09938      0.99959     2.08867    0.01112     3.09938
      N   12   -0.24333      0.99973     2.73119    0.01241     3.74333
      N   13   -0.15171      0.99973     2.63627    0.01571     3.65171
      N   14    0.13482      0.99971     2.35001    0.01546     3.36518
      N   15   -0.00121      0.99982     2.48685    0.01454     3.50121
      H   16    0.09974      0.00000     0.39908    0.00118     0.40026
      H   17    0.09851      0.00000     0.40023    0.00126     0.40149
      H   18    0.09436      0.00000     0.40399    0.00164     0.40564
      H   19    0.09368      0.00000     0.40466    0.00166     0.40632
      H   20    0.09214      0.00000     0.40630    0.00156     0.40786
      H   21    0.09184      0.00000     0.40638    0.00178     0.40816
      H   22    0.10310      0.00000     0.39572    0.00118     0.39690
      H   23    0.09638      0.00000     0.40283    0.00079     0.40362
      H   24    0.10049      0.00000     0.39855    0.00095     0.39951
      H   25    0.09434      0.00000     0.40318    0.00247     0.40566
      H   26    0.09056      0.00000     0.40780    0.00164     0.40944
      H   27    0.18162      0.00000     0.31391    0.00447     0.31838
 =======================================================================
   * Total *    0.00000     14.99448    38.81279    0.19273    54.00000

 Normal termination of Gaussian 16 at Thu Dec 10 15:12:43 2020.
