 Gaussian 16, Revision A.03,

 -----------------------------------------------------------
 # opt freq B3LYP/6-31G(d) empiricaldispersion=gd3bj scf=xqc
 -----------------------------------------------------------

 ------------------------------
 CID_91602411_JID_2981_neutraal
 ------------------------------
 Symbolic Z-matrix:
 Charge =  0 Multiplicity = 1

 SCF Done:  E(RB3LYP) =  -880.174097850     A.U. after   15 cycles
 SCF Done:  E(RB3LYP) =  -880.180337749     A.U. after   13 cycles
 SCF Done:  E(RB3LYP) =  -880.181233727     A.U. after   12 cycles
 SCF Done:  E(RB3LYP) =  -880.181811425     A.U. after   11 cycles
 SCF Done:  E(RB3LYP) =  -880.182052680     A.U. after   12 cycles
 SCF Done:  E(RB3LYP) =  -880.182308388     A.U. after   12 cycles
 SCF Done:  E(RB3LYP) =  -880.181869496     A.U. after   14 cycles
 SCF Done:  E(RB3LYP) =  -880.182774954     A.U. after   11 cycles
 SCF Done:  E(RB3LYP) =  -880.182985502     A.U. after   12 cycles
 SCF Done:  E(RB3LYP) =  -880.183304412     A.U. after   12 cycles
 SCF Done:  E(RB3LYP) =  -880.183510114     A.U. after   11 cycles
 SCF Done:  E(RB3LYP) =  -880.183538335     A.U. after   11 cycles
 SCF Done:  E(RB3LYP) =  -880.183563277     A.U. after   11 cycles
 SCF Done:  E(RB3LYP) =  -880.183562757     A.U. after    8 cycles
 SCF Done:  E(RB3LYP) =  -880.183565093     A.U. after   10 cycles
 Optimization completed.
    -- Stationary point found.
 Normal termination of Gaussian 16 at Wed Dec  9 18:28:45 2020.

 --------------------------------------------------------------------
 #N Geom=AllCheck Guess=TCheck SCRF=Check GenChk RB3LYP/6-31G(d) Freq
 --------------------------------------------------------------------

 Structure from the checkpoint file:  "JID_2981.chk"
 ------------------------------
 CID_91602411_JID_2981_neutraal
 ------------------------------
 Charge =  0 Multiplicity = 1

 SCF Done:  E(RB3LYP) =  -880.183565093     A.U. after    1 cycles

  Exact polarizability: 144.625  11.167 117.097  -6.954   8.656  97.630
 Approx polarizability: 205.803  17.479 183.731 -19.226  19.275 141.206

                      1                      2                      3
                      A                      A                      A
 Frequencies --     41.4823                54.2766                72.6120
 Red. masses --      2.9584                 3.5613                 3.4533
 Frc consts  --      0.0030                 0.0062                 0.0107
 IR Inten    --      0.1863                 2.2932                 0.0481

                      4                      5                      6
                      A                      A                      A
 Frequencies --    103.8271               130.4302               156.7933
 Red. masses --      4.0018                 2.6112                 1.1496
 Frc consts  --      0.0254                 0.0262                 0.0167
 IR Inten    --      0.4026                 0.6853                 0.2179

                      7                      8                      9
                      A                      A                      A
 Frequencies --    166.4825               213.5916               256.6276
 Red. masses --      2.2159                 2.5084                 1.2089
 Frc consts  --      0.0362                 0.0674                 0.0469
 IR Inten    --      0.5029                 1.3460                 1.0599

                     10                     11                     12
                      A                      A                      A
 Frequencies --    263.1006               273.9691               315.9736
 Red. masses --      1.7676                 1.7483                 2.3263
 Frc consts  --      0.0721                 0.0773                 0.1368
 IR Inten    --      1.5239                 0.6869                 0.5441

                     13                     14                     15
                      A                      A                      A
 Frequencies --    335.6557               389.9866               401.0393
 Red. masses --      2.6868                 5.1757                 2.7735
 Frc consts  --      0.1784                 0.4638                 0.2628
 IR Inten    --      3.6727                 1.7869                 1.0734

                     16                     17                     18
                      A                      A                      A
 Frequencies --    447.4877               470.9276               508.3686
 Red. masses --      4.4035                 2.7727                 4.4748
 Frc consts  --      0.5195                 0.3623                 0.6814
 IR Inten    --      1.5303                 0.3855                 6.5793

                     19                     20                     21
                      A                      A                      A
 Frequencies --    584.4374               658.6054               677.2653
 Red. masses --      3.2803                 4.4816                 5.6806
 Frc consts  --      0.6601                 1.1453                 1.5352
 IR Inten    --      0.1466                12.3684                17.8317

                     22                     23                     24
                      A                      A                      A
 Frequencies --    715.3925               767.9602               783.9280
 Red. masses --      5.9836                 1.4855                 1.6194
 Frc consts  --      1.8043                 0.5162                 0.5864
 IR Inten    --      2.0226                17.4909                15.1438

                     25                     26                     27
                      A                      A                      A
 Frequencies --    809.1343               837.7596               894.8823
 Red. masses --      3.7319                 2.5348                 1.7802
 Frc consts  --      1.4395                 1.0482                 0.8400
 IR Inten    --      8.1795                 7.9562                 2.0219

                     28                     29                     30
                      A                      A                      A
 Frequencies --    918.1988               964.4372               971.9366
 Red. masses --      2.4184                 1.3885                 2.9008
 Frc consts  --      1.2013                 0.7609                 1.6145
 IR Inten    --     15.4876                 0.9673                 0.4561

                     31                     32                     33
                      A                      A                      A
 Frequencies --    981.2098               995.0678              1010.0274
 Red. masses --      1.5989                 1.1828                 1.3527
 Frc consts  --      0.9069                 0.6900                 0.8131
 IR Inten    --      1.8685                 4.6266                24.1170

                     34                     35                     36
                      A                      A                      A
 Frequencies --   1033.5209              1075.3596              1084.6399
 Red. masses --      1.8232                 2.3203                 1.8395
 Frc consts  --      1.1474                 1.5809                 1.2750
 IR Inten    --     20.1270                 3.3570                 6.0472

                     37                     38                     39
                      A                      A                      A
 Frequencies --   1101.3843              1159.5915              1176.3438
 Red. masses --      1.7972                 2.4064                 3.4947
 Frc consts  --      1.2845                 1.9065                 2.8492
 IR Inten    --      4.3522                55.0473               155.7716

                     40                     41                     42
                      A                      A                      A
 Frequencies --   1218.7008              1239.7143              1267.1948
 Red. masses --      2.3045                 1.9409                 2.0491
 Frc consts  --      2.0166                 1.7575                 1.9387
 IR Inten    --     48.5060                36.0565                36.5513

                     43                     44                     45
                      A                      A                      A
 Frequencies --   1301.5193              1344.5414              1391.5187
 Red. masses --      1.4272                 1.2446                 1.1789
 Frc consts  --      1.4244                 1.3257                 1.3449
 IR Inten    --     19.9385                14.3982                 5.8582

                     46                     47                     48
                      A                      A                      A
 Frequencies --   1401.6002              1405.1115              1424.9775
 Red. masses --      1.5123                 1.3640                 1.4176
 Frc consts  --      1.7504                 1.5867                 1.6960
 IR Inten    --      3.7664                 4.4730                19.0517

                     49                     50                     51
                      A                      A                      A
 Frequencies --   1435.4959              1445.7778              1495.1745
 Red. masses --      1.3746                 1.2851                 1.0529
 Frc consts  --      1.6689                 1.5827                 1.3869
 IR Inten    --     28.3867                 5.7610                 9.1142

                     52                     53                     54
                      A                      A                      A
 Frequencies --   1502.6034              1509.5920              1515.6249
 Red. masses --      1.0875                 1.0520                 1.0593
 Frc consts  --      1.4467                 1.4125                 1.4337
 IR Inten    --      4.7709                19.5470                 5.4709

                     55                     56                     57
                      A                      A                      A
 Frequencies --   1520.1069              1522.0099              1529.6271
 Red. masses --      1.0703                 1.0617                 1.0459
 Frc consts  --      1.4571                 1.4491                 1.4419
 IR Inten    --      7.0130                 7.8862                 4.8226

                     58                     59                     60
                      A                      A                      A
 Frequencies --   1542.8137              1624.3230              1689.5646
 Red. masses --      1.0596                 9.7775                 6.6322
 Frc consts  --      1.4860                15.1993                11.1546
 IR Inten    --      7.4421               353.4786                54.4027

                     61                     62                     63
                      A                      A                      A
 Frequencies --   3036.6253              3044.9347              3047.9722
 Red. masses --      1.0611                 1.0454                 1.0595
 Frc consts  --      5.7647                 5.7105                 5.7993
 IR Inten    --     15.9610                27.9398                28.1065

                     64                     65                     66
                      A                      A                      A
 Frequencies --   3053.9392              3077.5162              3082.3351
 Red. masses --      1.0368                 1.1011                 1.0298
 Frc consts  --      5.6970                 6.1442                 5.7643
 IR Inten    --     19.7852                20.6655                17.1875

                     67                     68                     69
                      A                      A                      A
 Frequencies --   3089.8537              3108.5728              3125.8856
 Red. masses --      1.0968                 1.1001                 1.1025
 Frc consts  --      6.1694                 6.2633                 6.3473
 IR Inten    --     16.8210                43.9839                20.4733

                     70                     71                     72
                      A                      A                      A
 Frequencies --   3137.6263              3140.5196              3169.7578
 Red. masses --      1.1030                 1.0995                 1.1051
 Frc consts  --      6.3980                 6.3892                 6.5421
 IR Inten    --     13.1189                37.5082                 6.4424

                     73                     74                     75
                      A                      A                      A
 Frequencies --   3181.1995              3196.1626              3220.5245
 Red. masses --      1.1081                 1.0870                 1.0976
 Frc consts  --      6.6070                 6.5424                 6.7075
 IR Inten    --      5.6010                16.6291                18.1932

 - Thermochemistry -
 -------------------
 Temperature   298.150 Kelvin.  Pressure   1.00000 Atm.
 Atom     1 has atomic number  6 and mass  12.00000

 Molecular mass:   185.08744 amu.
 Principal axes and moments of inertia in atomic units:
                           1         2         3
     Eigenvalues --  1541.678293139.373713433.71749
           X            0.99964   0.01069   0.02462
           Y           -0.01016   0.99972  -0.02153
           Z           -0.02484   0.02127   0.99947
 This molecule is an asymmetric top.
 Rotational symmetry number  1.
 Warning -- assumption of classical behavior for rotation
           may cause significant error
 Rotational temperatures (Kelvin)      0.05618     0.02759     0.02522
 Rotational constants (GHZ):           1.17063     0.57487     0.52559
 Zero-point vibrational energy     603185.5 (Joules/Mol)
                                  144.16478 (Kcal/Mol)
 Warning -- explicit consideration of  19 degrees of freedom as
           vibrations may cause significant error
 Vibrational temperatures:     59.68    78.09   104.47   149.38   187.66
          (Kelvin)            225.59   239.53   307.31   369.23   378.54
                              394.18   454.62   482.93   561.10   577.01
                              643.84   677.56   731.43   840.88   947.59
                              974.43  1029.29  1104.92  1127.90  1164.16
                             1205.35  1287.54  1321.08  1387.61  1398.40
                             1411.74  1431.68  1453.20  1487.01  1547.20
                             1560.55  1584.65  1668.39  1692.50  1753.44
                             1783.67  1823.21  1872.60  1934.50  2002.08
                             2016.59  2021.64  2050.22  2065.36  2080.15
                             2151.22  2161.91  2171.97  2180.65  2187.09
                             2189.83  2200.79  2219.76  2337.04  2430.91
                             4369.03  4380.98  4385.35  4393.94  4427.86
                             4434.79  4445.61  4472.54  4497.45  4514.34
                             4518.51  4560.57  4577.04  4598.57  4633.62

 Zero-point correction=                           0.229741 (Hartree/Particle)
 Thermal correction to Energy=                    0.243208
 Thermal correction to Enthalpy=                  0.244153
 Thermal correction to Gibbs Free Energy=         0.189300
 Sum of electronic and zero-point Energies=           -879.953824
 Sum of electronic and thermal Energies=              -879.940357
 Sum of electronic and thermal Enthalpies=            -879.939412
 Sum of electronic and thermal Free Energies=         -879.994265

                     E (Thermal)             CV                S
                      KCal/Mol        Cal/Mol-Kelvin    Cal/Mol-Kelvin
 Total                  152.616             49.636            115.447
 Electronic               0.000              0.000              0.000
 Translational            0.889              2.981             41.553
 Rotational               0.889              2.981             31.186
 Vibrational            150.838             43.674             42.708
 Vibration     1          0.594              1.981              5.187
 Vibration     2          0.596              1.976              4.655
 Vibration     3          0.599              1.967              4.081
 Vibration     4          0.605              1.946              3.381
 Vibration     5          0.612              1.923              2.940
 Vibration     6          0.620              1.895              2.588
 Vibration     7          0.624              1.884              2.475
 Vibration     8          0.644              1.820              2.013
 Vibration     9          0.666              1.752              1.685
 Vibration    10          0.670              1.740              1.641
 Vibration    11          0.676              1.721              1.571
 Vibration    12          0.703              1.643              1.331
 Vibration    13          0.717              1.604              1.233
 Vibration    14          0.758              1.492              1.000
 Vibration    15          0.767              1.468              0.959
 Vibration    16          0.807              1.366              0.803
 Vibration    17          0.828              1.315              0.735
 Vibration    18          0.864              1.231              0.638
 Vibration    19          0.941              1.065              0.477

 Optimization completed.
    -- Stationary point found.
 Normal termination of Gaussian 16 at Wed Dec  9 18:35:58 2020.

 ----------------------------------------------------------------------
 # B3LYP/6-311++G(d,p) empiricaldispersion=gd3bj scf=xqc pop=npa geom=c
 heck
 ----------------------------------------------------------------------

 --------------------------------------
 CID_91602411_JID_2981_Energie_neutraal
 --------------------------------------
 Structure from the checkpoint file:  "JID_2981.chk"
 Charge =  0 Multiplicity = 1

 SCF Done:  E(RB3LYP) =  -880.343755986     A.U. after   15 cycles
 Normal termination of Gaussian 16 at Wed Dec  9 18:39:24 2020.

 ----------------------------------------------------------------------
 # B3LYP/6-311++G(d,p) empiricaldispersion=gd3bj scf=xqc pop=npa geom=c
 heck
 ----------------------------------------------------------------------

 ------------------------------------
 CID_91602411_JID_2981_Energie_kation
 ------------------------------------
 Structure from the checkpoint file:  "JID_2981.chk"
 Charge =  1 Multiplicity = 2

 SCF Done:  E(UB3LYP) =  -880.059698963     A.U. after   23 cycles
 Normal termination of Gaussian 16 at Wed Dec  9 18:46:33 2020.
 Gaussian 16:  ES64L-G16RevA.03 25-Dec-2016

 ----------------------------------------------------------------------
 # B3LYP/6-311++G(d,p) empiricaldispersion=gd3bj scf=xqc pop=npa geom=c
 heck
 ----------------------------------------------------------------------

 -----------------------------------
 CID_91602411_JID_2981_Energie_anion
 -----------------------------------
 Structure from the checkpoint file:  "JID_2981.chk"
 Charge = -1 Multiplicity = 2

                         Standard orientation:
 ---------------------------------------------------------------------
 Center     Atomic      Atomic             Coordinates (Angstroms)
 Number     Number       Type             X           Y           Z
 ---------------------------------------------------------------------
      1          6           0       -3.064018    0.672204   -1.519392
      2          6           0       -2.239352    1.544859   -0.568554
      3          6           0       -1.941196    0.930726    0.807385
      4          6           0       -0.909193   -0.205113    0.845762
      5          6           0       -1.322384   -1.455907    0.112516
      6          6           0       -0.391508   -2.157371   -0.549202
      7          7           0        0.945987   -1.750647   -0.651112
      8          6           0        1.176232   -0.534549   -0.316687
      9          8           0        0.291810    0.350516    0.185585
     10         16           0        2.785069    0.137230   -0.608940
     11          6           0        2.695991    1.726284    0.290962
     12          6           0       -0.512460   -0.532527    2.290121
     13          1           0       -2.518861   -0.227854   -1.815461
     14          1           0       -3.316760    1.227624   -2.429552
     15          1           0       -4.004801    0.355966   -1.050962
     16          1           0       -1.289461    1.814507   -1.043966
     17          1           0       -2.776122    2.486724   -0.396815
     18          1           0       -1.575449    1.721950    1.473639
     19          1           0       -2.866294    0.546764    1.258823
     20          1           0       -2.352876   -1.786271    0.185339
     21          1           0       -0.621898   -3.088996   -1.058110
     22          1           0        1.957581    2.392468   -0.156320
     23          1           0        2.459826    1.565241    1.344107
     24          1           0        3.691007    2.169875    0.203997
     25          1           0       -0.137084    0.361394    2.800571
     26          1           0       -1.381185   -0.911238    2.839346
     27          1           0        0.262208   -1.305058    2.304047
 ---------------------------------------------------------------------

 SCF Done:  E(UB3LYP) =  -880.331775642     A.U. after   33 cycles
 SCF Done:  E(UB3LYP) =  -880.331775642     a.u. after    1 cycles

 The electronic state is 2-A.
 Alpha  occ. eigenvalues --  -88.75424 -19.06093 -14.19152 -10.18242 -10.14561
 Alpha  occ. eigenvalues --  -10.09463 -10.08993 -10.06811 -10.06438 -10.06242
 Alpha  occ. eigenvalues --  -10.06045 -10.05724  -7.84029  -5.80423  -5.80010
 Alpha  occ. eigenvalues --   -5.79452  -0.98570  -0.81820  -0.73492  -0.68958
 Alpha  occ. eigenvalues --   -0.66607  -0.63081  -0.58746  -0.57237  -0.53323
 Alpha  occ. eigenvalues --   -0.50610  -0.48634  -0.42080  -0.39578  -0.37942
 Alpha  occ. eigenvalues --   -0.36040  -0.34615  -0.34180  -0.33814  -0.32214
 Alpha  occ. eigenvalues --   -0.31437  -0.30318  -0.29686  -0.29203  -0.28125
 Alpha  occ. eigenvalues --   -0.27664  -0.24878  -0.23967  -0.23344  -0.23181
 Alpha  occ. eigenvalues --   -0.22419  -0.20967  -0.16957  -0.15892  -0.11028
 Alpha  occ. eigenvalues --    0.04466
 Alpha virt. eigenvalues --    0.06487   0.06848   0.07730   0.08106   0.09111
 Alpha virt. eigenvalues --    0.09661   0.10156   0.10690   0.11458   0.11672
 Alpha virt. eigenvalues --    0.12474   0.12682   0.13070   0.13612   0.13780

  Beta  occ. eigenvalues --  -88.75415 -19.06058 -14.19154 -10.18169 -10.14565
  Beta  occ. eigenvalues --  -10.09436 -10.08919 -10.06786 -10.06423 -10.06184
  Beta  occ. eigenvalues --  -10.06006 -10.05711  -7.84022  -5.80404  -5.80001
  Beta  occ. eigenvalues --   -5.79443  -0.98495  -0.81768  -0.73425  -0.68888
  Beta  occ. eigenvalues --   -0.66553  -0.63014  -0.58689  -0.57111  -0.53253
  Beta  occ. eigenvalues --   -0.50515  -0.48574  -0.42036  -0.39513  -0.37820
  Beta  occ. eigenvalues --   -0.35976  -0.34558  -0.34127  -0.33734  -0.32146
  Beta  occ. eigenvalues --   -0.31391  -0.30248  -0.29629  -0.29153  -0.28002
  Beta  occ. eigenvalues --   -0.27601  -0.24825  -0.23901  -0.23283  -0.23116
  Beta  occ. eigenvalues --   -0.22352  -0.20832  -0.16914  -0.15770  -0.10870
  Beta virt. eigenvalues --    0.06778   0.07233   0.07694   0.08215   0.08664
  Beta virt. eigenvalues --    0.09650   0.09940   0.10747   0.11031   0.11824
  Beta virt. eigenvalues --    0.12013   0.12793   0.13100   0.13402   0.13829

 Mulliken charges and spin densities:
               1          2
     1  C    0.249301  -0.859551
     2  C   -0.684003   0.466635
     3  C    0.763629  -0.970637
     4  C   -1.192698   1.382766
     5  C   -0.232808  -0.108595
     6  C    0.420305  -0.559311
     7  N   -0.064369   0.042060
     8  C   -0.195056   0.184584
     9  O    0.165499   0.052559
    10  S   -0.149365  -0.131350
    11  C    0.713683  -1.246704
    12  C    1.318121  -1.789482
    13  H    0.122054   0.058648
    14  H   -0.140756   0.261088
    15  H   -0.031761   0.170276
    16  H    0.261918  -0.120090
    17  H   -0.361178   0.516762
    18  H   -0.139270   0.312513
    19  H   -0.208652   0.373960
    20  H   -0.326746   0.499235
    21  H    0.088525   0.087965
    22  H   -0.260909   0.441106
    23  H   -0.265397   0.444391
    24  H   -0.448431   0.602499
    25  H   -0.191885   0.349797
    26  H   -0.317521   0.476783
    27  H    0.107773   0.062093
 Sum of Mulliken charges =  -1.00000   1.00000

 Dipole moment (field-independent basis, Debye):
    X=             -0.2078    Y=             -2.6757    Z=             -2.4294  Tot=              3.6201
 Quadrupole moment (field-independent basis, Debye-Ang):
   XX=           -142.2461   YY=           -122.4679   ZZ=           -118.6354
   XY=             -3.0947   XZ=              2.8168   YZ=             -3.3830

 Summary of Natural Population Analysis:

                                       Natural Population
                Natural  -----------------------------------------------
    Atom  No    Charge         Core      Valence    Rydberg      Total
 -----------------------------------------------------------------------
      C    1   -0.28650      0.99966     2.28280    0.00404     3.28650
      C    2   -0.19116      0.99963     2.18325    0.00828     3.19116
      C    3   -0.19371      0.99957     2.18278    0.01136     3.19371
      C    4    0.12761      0.99948     1.85712    0.01578     2.87239
      C    5   -0.13410      0.99948     2.12318    0.01144     3.13410
      C    6    0.00364      0.99948     1.98311    0.01377     2.99636
      N    7   -0.29717      0.99963     2.78685    0.01069     3.79717
      C    8    0.23748      0.99953     1.73705    0.02593     2.76252
      O    9   -0.29157      0.99985     3.27838    0.01334     4.29157
      S   10    0.13172      4.99952     2.84783    0.02094     7.86828
      C   11   -0.34597      0.99962     2.33952    0.00684     3.34597
      C   12   -0.29393      0.99960     2.28741    0.00691     3.29393
      H   13    0.10256      0.00000     0.39618    0.00127     0.39744
      H   14    0.09545      0.00000     0.40368    0.00087     0.40455
      H   15    0.09361      0.00000     0.40516    0.00123     0.40639
      H   16    0.10108      0.00000     0.39733    0.00159     0.39892
      H   17    0.09570      0.00000     0.40314    0.00116     0.40430
      H   18    0.10461      0.00000     0.39363    0.00176     0.39539
      H   19    0.10158      0.00000     0.39656    0.00186     0.39842
      H   20    0.10726      0.00000     0.39159    0.00115     0.39274
      H   21    0.09140      0.00000     0.40750    0.00110     0.40860
      H   22    0.10796      0.00000     0.39014    0.00190     0.39204
      H   23    0.11014      0.00000     0.38753    0.00233     0.38986
      H   24    0.10678      0.00000     0.39154    0.00169     0.39322
      H   25    0.10589      0.00000     0.39247    0.00165     0.39411
      H   26    0.10549      0.00000     0.39321    0.00130     0.39451
      H   27    0.10413      0.00000     0.39476    0.00110     0.39587
 =======================================================================
   * Total *   -0.00000     15.99505    33.83370    0.17125    50.00000

 Normal termination of Gaussian 16 at Wed Dec  9 18:56:59 2020.
