 Gaussian 16, Revision A.03,

 -----------------------------------------------------------
 # opt freq B3LYP/6-31G(d) empiricaldispersion=gd3bj scf=xqc
 -----------------------------------------------------------

 ------------------------------
 CID_90696030_JID_2776_neutraal
 ------------------------------
 Symbolic Z-matrix:
 Charge =  0 Multiplicity = 1

 SCF Done:  E(RB3LYP) =  -552.131257582     A.U. after   14 cycles
 SCF Done:  E(RB3LYP) =  -552.136055780     A.U. after   12 cycles
 SCF Done:  E(RB3LYP) =  -552.136450669     A.U. after   12 cycles
 SCF Done:  E(RB3LYP) =  -552.136777510     A.U. after   11 cycles
 SCF Done:  E(RB3LYP) =  -552.136834752     A.U. after   11 cycles
 SCF Done:  E(RB3LYP) =  -552.136899964     A.U. after   11 cycles
 SCF Done:  E(RB3LYP) =  -552.136933244     A.U. after   10 cycles
 SCF Done:  E(RB3LYP) =  -552.136944997     A.U. after    9 cycles
 SCF Done:  E(RB3LYP) =  -552.136951875     A.U. after    9 cycles
 SCF Done:  E(RB3LYP) =  -552.136956297     A.U. after    8 cycles
 SCF Done:  E(RB3LYP) =  -552.136958525     A.U. after    8 cycles
 SCF Done:  E(RB3LYP) =  -552.136959543     A.U. after    8 cycles
 Optimization completed.
    -- Stationary point found.
 Normal termination of Gaussian 16 at Wed Dec  9 18:00:25 2020.

 --------------------------------------------------------------------
 #N Geom=AllCheck Guess=TCheck SCRF=Check GenChk RB3LYP/6-31G(d) Freq
 --------------------------------------------------------------------

 Structure from the checkpoint file:  "JID_2776.chk"
 ------------------------------
 CID_90696030_JID_2776_neutraal
 ------------------------------
 Charge =  0 Multiplicity = 1

 SCF Done:  E(RB3LYP) =  -552.136959543     A.U. after    1 cycles

  Exact polarizability: 118.957   3.978 101.316  -5.687  10.216  76.541
 Approx polarizability: 168.655   6.933 157.443 -12.631  25.623 119.805

                      1                      2                      3
                      A                      A                      A
 Frequencies --     80.8482               109.3003               112.2830
 Red. masses --      3.9351                 3.8400                 3.4546
 Frc consts  --      0.0152                 0.0270                 0.0257
 IR Inten    --      0.8325                 1.7954                 1.4543

                      4                      5                      6
                      A                      A                      A
 Frequencies --    176.0161               225.9307               247.3532
 Red. masses --      3.3284                 1.4612                 2.2534
 Frc consts  --      0.0608                 0.0439                 0.0812
 IR Inten    --      6.6582                 2.9272                 0.3359

                      7                      8                      9
                      A                      A                      A
 Frequencies --    255.5497               276.5301               285.1896
 Red. masses --      1.4357                 1.7896                 2.9246
 Frc consts  --      0.0552                 0.0806                 0.1401
 IR Inten    --      8.0908                14.6557                14.1823

                     10                     11                     12
                      A                      A                      A
 Frequencies --    293.1244               336.3408               354.7666
 Red. masses --      2.5572                 1.3155                 2.8073
 Frc consts  --      0.1295                 0.0877                 0.2082
 IR Inten    --      4.5252                47.9042                41.0447

                     13                     14                     15
                      A                      A                      A
 Frequencies --    444.6041               463.4429               487.6023
 Red. masses --      2.7487                 2.5972                 1.8680
 Frc consts  --      0.3201                 0.3287                 0.2617
 IR Inten    --     17.7684                34.6492                26.9166

                     16                     17                     18
                      A                      A                      A
 Frequencies --    511.5475               632.3264               674.9982
 Red. masses --      5.1007                 2.9263                 3.7838
 Frc consts  --      0.7864                 0.6894                 1.0157
 IR Inten    --      2.3096                 6.8594                22.3923

                     19                     20                     21
                      A                      A                      A
 Frequencies --    691.7617               751.9551               799.9677
 Red. masses --      3.3275                 4.8152                 3.6360
 Frc consts  --      0.9382                 1.6042                 1.3710
 IR Inten    --     15.4073                 1.1695                 2.7036

                     22                     23                     24
                      A                      A                      A
 Frequencies --    847.3494               867.5100               893.9741
 Red. masses --      3.3094                 1.2677                 3.3973
 Frc consts  --      1.4000                 0.5621                 1.5997
 IR Inten    --      2.1009                17.0145                10.0996

                     25                     26                     27
                      A                      A                      A
 Frequencies --    958.6348               991.0639              1022.3480
 Red. masses --      2.2234                 3.3473                 1.9055
 Frc consts  --      1.2039                 1.9371                 1.1734
 IR Inten    --     13.9987                49.7076                17.5681

                     28                     29                     30
                      A                      A                      A
 Frequencies --   1053.7463              1072.7482              1098.2180
 Red. masses --      1.5709                 1.7416                 3.6119
 Frc consts  --      1.0277                 1.1809                 2.5667
 IR Inten    --      1.7717                56.9330                24.6429

                     31                     32                     33
                      A                      A                      A
 Frequencies --   1115.9948              1139.3749              1151.8035
 Red. masses --      3.1925                 1.7820                 3.0728
 Frc consts  --      2.3426                 1.3629                 2.4019
 IR Inten    --      5.2961                74.3531                17.7274

                     34                     35                     36
                      A                      A                      A
 Frequencies --   1161.1553              1197.4156              1211.4839
 Red. masses --      1.4797                 1.2482                 1.6336
 Frc consts  --      1.1754                 1.0544                 1.4126
 IR Inten    --      4.1869                 6.6221                23.7945

                     37                     38                     39
                      A                      A                      A
 Frequencies --   1237.1382              1259.0039              1299.3047
 Red. masses --      1.4734                 2.3652                 1.5729
 Frc consts  --      1.3286                 2.2089                 1.5645
 IR Inten    --      2.6377                14.3123                 0.3240

                     40                     41                     42
                      A                      A                      A
 Frequencies --   1321.3315              1334.3975              1351.5351
 Red. masses --      1.9236                 1.4426                 2.1328
 Frc consts  --      1.9787                 1.5135                 2.2954
 IR Inten    --      1.2289                 6.9445                47.6420

                     43                     44                     45
                      A                      A                      A
 Frequencies --   1368.0347              1403.5378              1427.9769
 Red. masses --      1.9018                 1.3832                 2.6369
 Frc consts  --      2.0971                 1.6053                 3.1681
 IR Inten    --     23.2520                14.0407                13.3159

                     46                     47                     48
                      A                      A                      A
 Frequencies --   1432.1882              1448.8507              1469.8889
 Red. masses --      1.2648                 1.3395                 2.6745
 Frc consts  --      1.5285                 1.6567                 3.4046
 IR Inten    --     15.9361                43.2700                12.6859

                     49                     50                     51
                      A                      A                      A
 Frequencies --   1483.3263              1515.5494              1525.5018
 Red. masses --      1.3197                 1.0741                 1.0546
 Frc consts  --      1.7107                 1.4535                 1.4460
 IR Inten    --      4.6373                18.1237                 1.2217

                     52                     53                     54
                      A                      A                      A
 Frequencies --   1528.7491              1553.0591              1560.3906
 Red. masses --      1.0593                 1.0704                 1.1928
 Frc consts  --      1.4586                 1.5211                 1.7112
 IR Inten    --      0.2701                 5.7591                 1.1969

                     55                     56                     57
                      A                      A                      A
 Frequencies --   1569.1011              1617.9348              2898.3334
 Red. masses --      3.7622                 4.8148                 1.0656
 Frc consts  --      5.4575                 7.4260                 5.2740
 IR Inten    --     10.5784                 2.7100               116.1226

                     58                     59                     60
                      A                      A                      A
 Frequencies --   2935.0556              3014.9893              3025.3721
 Red. masses --      1.0755                 1.0838                 1.0859
 Frc consts  --      5.4588                 5.8047                 5.8558
 IR Inten    --     95.4240                38.9601                64.0389

                     61                     62                     63
                      A                      A                      A
 Frequencies --   3036.5979              3056.0570              3059.6438
 Red. masses --      1.0856                 1.0681                 1.0368
 Frc consts  --      5.8981                 5.8777                 5.7186
 IR Inten    --     44.9147                53.9627                16.0225

                     64                     65                     66
                      A                      A                      A
 Frequencies --   3116.5332              3127.0324              3143.2281
 Red. masses --      1.1000                 1.1002                 1.1030
 Frc consts  --      6.2946                 6.3385                 6.4204
 IR Inten    --     16.6660                29.4098                19.9032

                     67                     68                     69
                      A                      A                      A
 Frequencies --   3260.9915              3670.8549              3761.4119
 Red. masses --      1.0959                 1.0813                 1.0658
 Frc consts  --      6.8665                 8.5845                 8.8840
 IR Inten    --     10.1127                65.1894                12.9908

 - Thermochemistry -
 -------------------
 Temperature   298.150 Kelvin.  Pressure   1.00000 Atm.
 Atom     1 has atomic number  6 and mass  12.00000

 Molecular mass:   167.10586 amu.
 Principal axes and moments of inertia in atomic units:
                           1         2         3
     Eigenvalues --  1107.153662360.748482921.78510
           X            0.99991   0.01266   0.00448
           Y           -0.01265   0.99992  -0.00159
           Z           -0.00450   0.00153   0.99999
 This molecule is an asymmetric top.
 Rotational symmetry number  1.
 Warning -- assumption of classical behavior for rotation
           may cause significant error
 Rotational temperatures (Kelvin)      0.07823     0.03669     0.02964
 Rotational constants (GHZ):           1.63007     0.76448     0.61768
 Zero-point vibrational energy     561091.4 (Joules/Mol)
                                  134.10407 (Kcal/Mol)
 Warning -- explicit consideration of  16 degrees of freedom as
           vibrations may cause significant error
 Vibrational temperatures:    116.32   157.26   161.55   253.25   325.06
          (Kelvin)            355.89   367.68   397.87   410.32   421.74
                              483.92   510.43   639.69   666.79   701.55
                              736.00   909.78   971.17   995.29  1081.90
                             1150.98  1219.15  1248.15  1286.23  1379.26
                             1425.92  1470.93  1516.11  1543.45  1580.09
                             1605.67  1639.31  1657.19  1670.64  1722.81
                             1743.06  1779.97  1811.43  1869.41  1901.10
                             1919.90  1944.56  1968.30  2019.38  2054.54
                             2060.60  2084.57  2114.84  2134.18  2180.54
                             2194.86  2199.53  2234.51  2245.05  2257.59
                             2327.85  4170.06  4222.89  4337.90  4352.84
                             4368.99  4396.98  4402.14  4484.00  4499.10
                             4522.40  4691.84  5281.54  5411.83

 Zero-point correction=                           0.213708 (Hartree/Particle)
 Thermal correction to Energy=                    0.225045
 Thermal correction to Enthalpy=                  0.225989
 Thermal correction to Gibbs Free Energy=         0.177213
 Sum of electronic and zero-point Energies=           -551.923251
 Sum of electronic and thermal Energies=              -551.911915
 Sum of electronic and thermal Enthalpies=            -551.910970
 Sum of electronic and thermal Free Energies=         -551.959747

                     E (Thermal)             CV                S
                      KCal/Mol        Cal/Mol-Kelvin    Cal/Mol-Kelvin
 Total                  141.218             43.640            102.658
 Electronic               0.000              0.000              0.000
 Translational            0.889              2.981             41.249
 Rotational               0.889              2.981             30.414
 Vibrational            139.440             37.678             30.996
 Vibration     1          0.600              1.962              3.870
 Vibration     2          0.606              1.942              3.281
 Vibration     3          0.607              1.939              3.229
 Vibration     4          0.628              1.872              2.370
 Vibration     5          0.650              1.802              1.911
 Vibration     6          0.661              1.767              1.749
 Vibration     7          0.666              1.753              1.692
 Vibration     8          0.678              1.717              1.555
 Vibration     9          0.683              1.701              1.502
 Vibration    10          0.688              1.687              1.456
 Vibration    11          0.717              1.603              1.229
 Vibration    12          0.731              1.565              1.145
 Vibration    13          0.804              1.373              0.812
 Vibration    14          0.821              1.331              0.756
 Vibration    15          0.844              1.278              0.690
 Vibration    16          0.867              1.224              0.630

                           ! Non-Optimized Parameters !
 Normal termination of Gaussian 16 at Wed Dec  9 18:06:43 2020.

 ----------------------------------------------------------------------
 # B3LYP/6-311++G(d,p) empiricaldispersion=gd3bj scf=xqc pop=npa geom=c
 heck
 ----------------------------------------------------------------------

 --------------------------------------
 CID_90696030_JID_2776_Energie_neutraal
 --------------------------------------
 Structure from the checkpoint file:  "JID_2776.chk"
 Charge =  0 Multiplicity = 1

 SCF Done:  E(RB3LYP) =  -552.299128268     A.U. after   15 cycles
 Normal termination of Gaussian 16 at Wed Dec  9 18:09:14 2020.

 ----------------------------------------------------------------------
 # B3LYP/6-311++G(d,p) empiricaldispersion=gd3bj scf=xqc pop=npa geom=c
 heck
 ----------------------------------------------------------------------

 ------------------------------------
 CID_90696030_JID_2776_Energie_kation
 ------------------------------------
 Structure from the checkpoint file:  "JID_2776.chk"
 Charge =  1 Multiplicity = 2

 SCF Done:  E(UB3LYP) =  -552.012714929     A.U. after   23 cycles
 Normal termination of Gaussian 16 at Wed Dec  9 18:14:32 2020.
 Gaussian 16:  ES64L-G16RevA.03 25-Dec-2016

 ----------------------------------------------------------------------
 # B3LYP/6-311++G(d,p) empiricaldispersion=gd3bj scf=xqc pop=npa geom=c
 heck
 ----------------------------------------------------------------------

 -----------------------------------
 CID_90696030_JID_2776_Energie_anion
 -----------------------------------
 Structure from the checkpoint file:  "JID_2776.chk"
 Charge = -1 Multiplicity = 2

                         Standard orientation:
 ---------------------------------------------------------------------
 Center     Atomic      Atomic             Coordinates (Angstroms)
 Number     Number       Type             X           Y           Z
 ---------------------------------------------------------------------
      1          6           0        1.162281   -1.148431    1.538002
      2          6           0        1.331156   -1.268716    0.025566
      3          6           0        0.544305   -0.196661   -0.781390
      4          6           0       -0.926497   -0.270977   -0.509950
      5          6           0       -1.402634    0.804349    0.200064
      6          6           0       -0.285260    1.777538    0.432357
      7          7           0        0.767959    1.222627   -0.436159
      8          6           0        2.100237    1.742221   -0.284882
      9          6           0       -2.758156    0.504248    0.453372
     10          7           0       -3.094346   -0.681699   -0.069356
     11          7           0       -1.949365   -1.146159   -0.643995
     12          8           0        2.706688   -1.285867   -0.355260
     13          1           0        1.541369   -0.185154    1.898551
     14          1           0        1.718638   -1.946341    2.038978
     15          1           0        0.109524   -1.218130    1.826653
     16          1           0        0.947388   -2.245322   -0.300098
     17          1           0        0.810590   -0.356809   -1.836567
     18          1           0        0.011783    1.818834    1.497548
     19          1           0       -0.514448    2.808033    0.124789
     20          1           0        2.586812    1.508932    0.685524
     21          1           0        2.738789    1.361954   -1.088705
     22          1           0        2.074711    2.836240   -0.366296
     23          1           0       -3.510699    1.078038    0.977675
     24          1           0       -1.980469   -2.027009   -1.133735
     25          1           0        3.150186   -0.571141    0.125504
 ---------------------------------------------------------------------

 SCF Done:  E(UB3LYP) =  -552.285808772     A.U. after   32 cycles

 The electronic state is 2-A.
 Alpha  occ. eigenvalues --  -19.02044 -14.28556 -14.23118 -14.20563 -10.12182
 Alpha  occ. eigenvalues --  -10.11460 -10.10545 -10.10453 -10.09449 -10.08873
 Alpha  occ. eigenvalues --  -10.06586 -10.05963  -0.94405  -0.92470  -0.83595
 Alpha  occ. eigenvalues --   -0.72273  -0.70009  -0.66607  -0.61626  -0.60186
 Alpha  occ. eigenvalues --   -0.53360  -0.50594  -0.49035  -0.47520  -0.43102
 Alpha  occ. eigenvalues --   -0.40337  -0.37643  -0.35994  -0.35014  -0.34697
 Alpha  occ. eigenvalues --   -0.33025  -0.32495  -0.31935  -0.30448  -0.29660
 Alpha  occ. eigenvalues --   -0.27778  -0.27638  -0.26865  -0.25957  -0.22814
 Alpha  occ. eigenvalues --   -0.19659  -0.18660  -0.16282  -0.13844  -0.10533
 Alpha  occ. eigenvalues --    0.04532
 Alpha virt. eigenvalues --    0.06374   0.07680   0.08093   0.09411   0.09791
 Alpha virt. eigenvalues --    0.10154   0.10349   0.11098   0.11468   0.12432
 Alpha virt. eigenvalues --    0.13083   0.13810   0.14391   0.14973   0.15283

  Beta  occ. eigenvalues --  -19.02023 -14.28509 -14.23111 -14.20563 -10.12162
  Beta  occ. eigenvalues --  -10.11447 -10.10523 -10.10453 -10.09444 -10.08821
  Beta  occ. eigenvalues --  -10.06584 -10.05929  -0.94369  -0.92426  -0.83580
  Beta  occ. eigenvalues --   -0.72224  -0.69976  -0.66563  -0.61577  -0.60129
  Beta  occ. eigenvalues --   -0.53286  -0.50525  -0.48973  -0.47479  -0.43057
  Beta  occ. eigenvalues --   -0.40287  -0.37592  -0.35959  -0.34977  -0.34658
  Beta  occ. eigenvalues --   -0.32984  -0.32462  -0.31894  -0.30413  -0.29621
  Beta  occ. eigenvalues --   -0.27742  -0.27591  -0.26829  -0.25922  -0.22767
  Beta  occ. eigenvalues --   -0.19630  -0.18636  -0.16256  -0.13833  -0.10511
  Beta virt. eigenvalues --    0.06996   0.07978   0.08132   0.08759   0.09847
  Beta virt. eigenvalues --    0.10240   0.10655   0.10846   0.11402   0.11888
  Beta virt. eigenvalues --    0.12905   0.13483   0.14177   0.14603   0.15183

 Mulliken charges and spin densities:
               1          2
     1  C    0.699864  -1.218462
     2  C   -0.493414   0.046656
     3  C    0.917555  -0.557001
     4  C   -0.178089  -0.345426
     5  C   -0.021768   0.528967
     6  C    1.354444  -1.952159
     7  N   -0.309167   0.269067
     8  C    1.203430  -1.566429
     9  C   -1.181703   0.799448
    10  N   -0.163105  -0.006603
    11  N   -0.147323   0.107948
    12  O   -0.224440   0.009064
    13  H   -0.142173   0.300815
    14  H   -0.239354   0.402014
    15  H   -0.032078   0.197261
    16  H   -0.390868   0.587615
    17  H   -0.312132   0.564288
    18  H   -0.016072   0.166125
    19  H   -0.081140   0.259041
    20  H   -0.545063   0.684809
    21  H   -0.197473   0.356395
    22  H   -0.303901   0.438445
    23  H   -0.087769   0.240982
    24  H   -0.278537   0.599957
    25  H    0.170274   0.087187
 Sum of Mulliken charges =  -1.00000   1.00000

 Dipole moment (field-independent basis, Debye):
    X=             -2.0838    Y=              1.4228    Z=              0.6356  Tot=              2.6021
 Quadrupole moment (field-independent basis, Debye-Ang):
   XX=           -128.0526   YY=           -121.1256   ZZ=           -105.3439
   XY=             -9.0364   XZ=             -3.5049   YZ=             -2.9577

 Summary of Natural Population Analysis:

                                       Natural Population
                Natural  -----------------------------------------------
    Atom  No    Charge         Core      Valence    Rydberg      Total
 -----------------------------------------------------------------------
      C    1   -0.30462      0.99964     2.29862    0.00636     3.30462
      C    2    0.06230      0.99955     1.92373    0.01442     2.93770
      C    3   -0.01712      0.99952     2.00253    0.01508     3.01712
      C    4    0.08057      0.99939     1.90574    0.01430     2.91943
      C    5   -0.07203      0.99939     2.06391    0.00872     3.07203
      C    6   -0.07698      0.99959     2.06754    0.00985     3.07698
      N    7   -0.28271      0.99973     2.76983    0.01315     3.78271
      C    8   -0.17820      0.99964     2.16854    0.01003     3.17820
      C    9   -0.01201      0.99957     1.99908    0.01336     3.01201
      N   10   -0.15846      0.99975     2.64533    0.01339     3.65846
      N   11   -0.16548      0.99963     2.65262    0.01322     3.66548
      O   12   -0.37150      0.99990     3.36456    0.00704     4.37150
      H   13    0.09873      0.00000     0.39908    0.00218     0.40127
      H   14    0.10474      0.00000     0.39427    0.00099     0.39526
      H   15    0.10720      0.00000     0.39134    0.00146     0.39280
      H   16    0.08774      0.00000     0.40972    0.00254     0.41226
      H   17    0.10664      0.00000     0.39158    0.00178     0.39336
      H   18    0.08742      0.00000     0.41096    0.00162     0.41258
      H   19    0.09613      0.00000     0.40238    0.00148     0.40387
      H   20    0.07793      0.00000     0.41933    0.00274     0.42207
      H   21    0.10054      0.00000     0.39817    0.00129     0.39946
      H   22    0.09785      0.00000     0.40055    0.00161     0.40215
      H   23    0.09699      0.00000     0.40200    0.00101     0.40301
      H   24    0.20465      0.00000     0.28738    0.00797     0.29535
      H   25    0.22971      0.00000     0.26670    0.00359     0.27029
 =======================================================================
   * Total *    0.00000     11.99530    32.83550    0.16919    45.00000

 Normal termination of Gaussian 16 at Wed Dec  9 18:20:51 2020.
