 Gaussian 16, Revision A.03,

 -----------------------------------------------------------
 # opt freq B3LYP/6-31G(d) empiricaldispersion=gd3bj scf=xqc
 -----------------------------------------------------------

 ------------------------------
 CID_148018170_JID_667_neutraal
 ------------------------------
 Symbolic Z-matrix:
 Charge =  0 Multiplicity = 1

 SCF Done:  E(RB3LYP) =  -389.372002340     A.U. after   13 cycles
 SCF Done:  E(RB3LYP) =  -389.389675970     A.U. after   11 cycles
 SCF Done:  E(RB3LYP) =  -389.394649248     A.U. after   11 cycles
 SCF Done:  E(RB3LYP) =  -389.396282772     A.U. after   11 cycles
 SCF Done:  E(RB3LYP) =  -389.396797724     A.U. after   10 cycles
 SCF Done:  E(RB3LYP) =  -389.396905114     A.U. after    9 cycles
 SCF Done:  E(RB3LYP) =  -389.396948496     A.U. after    9 cycles
 SCF Done:  E(RB3LYP) =  -389.396972446     A.U. after    8 cycles
 SCF Done:  E(RB3LYP) =  -389.396979023     A.U. after    8 cycles
 SCF Done:  E(RB3LYP) =  -389.396981616     A.U. after    8 cycles
 SCF Done:  E(RB3LYP) =  -389.396982128     A.U. after    7 cycles
 Optimization completed.
    -- Stationary point found.
 Normal termination of Gaussian 16 at Tue Dec  8 12:26:40 2020.

 --------------------------------------------------------------------
 #N Geom=AllCheck Guess=TCheck SCRF=Check GenChk RB3LYP/6-31G(d) Freq
 --------------------------------------------------------------------

 Structure from the checkpoint file:  "JID_667.chk"
 ------------------------------
 CID_148018170_JID_667_neutraal
 ------------------------------
 Charge =  0 Multiplicity = 1

 SCF Done:  E(RB3LYP) =  -389.396982128     A.U. after    1 cycles

  Exact polarizability: 104.985  -0.802  98.379   0.294  -0.779  85.772
 Approx polarizability: 139.633  -0.124 138.515   1.285  -1.501 132.221

                      1                      2                      3
                      A                      A                      A
 Frequencies --    127.6991               144.6010               188.4755
 Red. masses --      2.6399                 2.4447                 2.3425
 Frc consts  --      0.0254                 0.0301                 0.0490
 IR Inten    --      0.0505                 0.1323                 0.4749

                      4                      5                      6
                      A                      A                      A
 Frequencies --    206.8611               226.7630               238.9420
 Red. masses --      1.1143                 1.1282                 2.3380
 Frc consts  --      0.0281                 0.0342                 0.0786
 IR Inten    --      0.0543                 0.0703                 0.1238

                      7                      8                      9
                      A                      A                      A
 Frequencies --    327.9789               349.4134               378.7569
 Red. masses --      2.4775                 2.1495                 2.1413
 Frc consts  --      0.1570                 0.1546                 0.1810
 IR Inten    --      0.3262                 0.1803                 1.3656

                     10                     11                     12
                      A                      A                      A
 Frequencies --    447.7423               491.1680               550.7890
 Red. masses --      2.3710                 2.8133                 3.2815
 Frc consts  --      0.2800                 0.3999                 0.5865
 IR Inten    --      2.8969                 3.8484                 2.2479

                     13                     14                     15
                      A                      A                      A
 Frequencies --    589.8615               650.7694               698.5232
 Red. masses --      3.1140                 3.6249                 4.2612
 Frc consts  --      0.6384                 0.9045                 1.2250
 IR Inten    --      1.1312                 1.7419                 1.1826

                     16                     17                     18
                      A                      A                      A
 Frequencies --    759.5151               804.2152               849.4643
 Red. masses --      3.3245                 2.1846                 2.3338
 Frc consts  --      1.1299                 0.8325                 0.9922
 IR Inten    --      1.6676                 2.9644                 0.4045

                     19                     20                     21
                      A                      A                      A
 Frequencies --    866.6392               905.1579               938.5267
 Red. masses --      1.4207                 1.8508                 2.1405
 Frc consts  --      0.6287                 0.8934                 1.1108
 IR Inten    --      3.9205                 2.9292                 1.3143

                     22                     23                     24
                      A                      A                      A
 Frequencies --    942.9894               979.2014               996.5459
 Red. masses --      2.2123                 1.4992                 2.1772
 Frc consts  --      1.1591                 0.8469                 1.2739
 IR Inten    --      0.7407                 3.5332                 4.5775

                     25                     26                     27
                      A                      A                      A
 Frequencies --   1015.3496              1044.7836              1060.0129
 Red. masses --      1.6448                 1.4343                 1.4433
 Frc consts  --      0.9990                 0.9224                 0.9555
 IR Inten    --      1.1025                 1.9656                 0.4571

                     28                     29                     30
                      A                      A                      A
 Frequencies --   1066.5996              1072.9660              1087.1792
 Red. masses --      1.3701                 1.3865                 1.4601
 Frc consts  --      0.9183                 0.9405                 1.0168
 IR Inten    --      2.0892                 3.7714                 4.1360

                     31                     32                     33
                      A                      A                      A
 Frequencies --   1112.9083              1120.8159              1131.9823
 Red. masses --      1.6383                 2.1287                 1.8922
 Frc consts  --      1.1955                 1.5756                 1.4285
 IR Inten    --      3.4403                 0.5647                 0.5528

                     34                     35                     36
                      A                      A                      A
 Frequencies --   1151.0286              1156.9378              1214.3684
 Red. masses --      2.0040                 1.7413                 1.5189
 Frc consts  --      1.5643                 1.3732                 1.3197
 IR Inten    --      4.7600                 4.4742                 0.2581

                     37                     38                     39
                      A                      A                      A
 Frequencies --   1227.4722              1260.3530              1319.8505
 Red. masses --      2.3153                 1.8856                 1.5498
 Frc consts  --      2.0553                 1.7647                 1.5906
 IR Inten    --      5.0720                 0.6179                 2.5981

                     40                     41                     42
                      A                      A                      A
 Frequencies --   1333.9508              1363.4570              1417.2341
 Red. masses --      2.0289                 1.5041                 2.0824
 Frc consts  --      2.1271                 1.6474                 2.4644
 IR Inten    --      0.4552                 9.2526                 4.0081

                     43                     44                     45
                      A                      A                      A
 Frequencies --   1438.9329              1443.2684              1502.5130
 Red. masses --      1.2636                 1.3249                 1.1556
 Frc consts  --      1.5415                 1.6261                 1.5371
 IR Inten    --      1.8820                 2.1083                 3.7371

                     46                     47                     48
                      A                      A                      A
 Frequencies --   1512.1993              1513.7202              1521.2886
 Red. masses --      1.2633                 1.1954                 1.0650
 Frc consts  --      1.7021                 1.6138                 1.4522
 IR Inten    --      5.7902                 5.1504                 0.6000

                     49                     50                     51
                      A                      A                      A
 Frequencies --   1523.0400              1525.7149              1531.2160
 Red. masses --      1.0653                 1.0641                 1.0689
 Frc consts  --      1.4559                 1.4594                 1.4766
 IR Inten    --      0.9743                 1.8667                 5.7209

                     52                     53                     54
                      A                      A                      A
 Frequencies --   1591.1062              3032.1059              3041.8654
 Red. masses --      5.7001                 1.0372                 1.0613
 Frc consts  --      8.5022                 5.6181                 5.7859
 IR Inten    --     12.3058                36.9264                62.3171

                     55                     56                     57
                      A                      A                      A
 Frequencies --   3047.5239              3080.6307              3088.0475
 Red. masses --      1.0353                 1.1018                 1.1019
 Frc consts  --      5.6652                 6.1607                 6.1911
 IR Inten    --     34.5813                18.0118                34.1549

                     58                     59                     60
                      A                      A                      A
 Frequencies --   3101.3278              3105.1726              3109.4495
 Red. masses --      1.0548                 1.0543                 1.1026
 Frc consts  --      5.9774                 5.9896                 6.2812
 IR Inten    --     20.5481                39.8109                24.3381

                     61                     62                     63
                      A                      A                      A
 Frequencies --   3110.7784              3114.1625              3131.5794
 Red. masses --      1.0995                 1.0916                 1.0975
 Frc consts  --      6.2686                 6.2374                 6.3416
 IR Inten    --     32.9648                 1.6029                48.3325

                     64                     65                     66
                      A                      A                      A
 Frequencies --   3149.1190              3178.0136              3182.3066
 Red. masses --      1.0904                 1.1156                 1.1143
 Frc consts  --      6.3709                 6.6383                 6.6489
 IR Inten    --     33.2791                24.1647                27.1675

 - Thermochemistry -
 -------------------
 Temperature   298.150 Kelvin.  Pressure   1.00000 Atm.
 Atom     1 has atomic number  6 and mass  12.00000

 Molecular mass:   134.10955 amu.
 Principal axes and moments of inertia in atomic units:
                           1         2         3
     Eigenvalues --   935.372611324.775141805.45972
           X            0.99994   0.00435  -0.01004
           Y           -0.00424   0.99993   0.01063
           Z            0.01008  -0.01058   0.99989
 This molecule is an asymmetric top.
 Rotational symmetry number  1.
 Warning -- assumption of classical behavior for rotation
           may cause significant error
 Rotational temperatures (Kelvin)      0.09260     0.06538     0.04797
 Rotational constants (GHZ):           1.92944     1.36230     0.99960
 Zero-point vibrational energy     558613.8 (Joules/Mol)
                                  133.51190 (Kcal/Mol)
 Warning -- explicit consideration of  13 degrees of freedom as
           vibrations may cause significant error
 Vibrational temperatures:    183.73   208.05   271.17   297.63   326.26
          (Kelvin)            343.78   471.89   502.73   544.95   644.20
                              706.68   792.46   848.68   936.31  1005.02
                             1092.77  1157.09  1222.19  1246.90  1302.32
                             1350.33  1356.75  1408.85  1433.81  1460.86
                             1503.21  1525.12  1534.60  1543.76  1564.21
                             1601.23  1612.60  1628.67  1656.07  1664.58
                             1747.21  1766.06  1813.37  1898.97  1919.26
                             1961.71  2039.08  2070.30  2076.54  2161.78
                             2175.72  2177.91  2188.80  2191.31  2195.16
                             2203.08  2289.25  4362.52  4376.57  4384.71
                             4432.34  4443.01  4462.12  4467.65  4473.80
                             4475.72  4480.59  4505.64  4530.88  4572.45
                             4578.63

 Zero-point correction=                           0.212765 (Hartree/Particle)
 Thermal correction to Energy=                    0.222193
 Thermal correction to Enthalpy=                  0.223137
 Thermal correction to Gibbs Free Energy=         0.179156
 Sum of electronic and zero-point Energies=           -389.184217
 Sum of electronic and thermal Energies=              -389.174789
 Sum of electronic and thermal Enthalpies=            -389.173845
 Sum of electronic and thermal Free Energies=         -389.217826

                     E (Thermal)             CV                S
                      KCal/Mol        Cal/Mol-Kelvin    Cal/Mol-Kelvin
 Total                  139.428             37.956             92.566
 Electronic               0.000              0.000              0.000
 Translational            0.889              2.981             40.593
 Rotational               0.889              2.981             29.194
 Vibrational            137.651             31.995             22.779
 Vibration     1          0.611              1.925              2.980
 Vibration     2          0.616              1.908              2.742
 Vibration     3          0.633              1.856              2.243
 Vibration     4          0.641              1.830              2.071
 Vibration     5          0.650              1.800              1.904
 Vibration     6          0.657              1.781              1.811
 Vibration     7          0.711              1.620              1.270
 Vibration     8          0.727              1.576              1.169
 Vibration     9          0.749              1.515              1.044
 Vibration    10          0.807              1.366              0.803
 Vibration    11          0.847              1.270              0.681
 Vibration    12          0.906              1.138              0.543
 Vibration    13          0.947              1.053              0.467

                           ! Non-Optimized Parameters !
 Normal termination of Gaussian 16 at Tue Dec  8 12:39:31 2020.

 ----------------------------------------------------------------------
 # B3LYP/6-311++G(d,p) empiricaldispersion=gd3bj scf=xqc pop=npa geom=c
 heck
 ----------------------------------------------------------------------

 --------------------------------------
 CID_148018170_JID_667_Energie_neutraal
 --------------------------------------
 Structure from the checkpoint file:  "JID_667.chk"
 Charge =  0 Multiplicity = 1

 SCF Done:  E(RB3LYP) =  -389.495199682     A.U. after   14 cycles
 Normal termination of Gaussian 16 at Tue Dec  8 12:43:30 2020.

 ----------------------------------------------------------------------
 # B3LYP/6-311++G(d,p) empiricaldispersion=gd3bj scf=xqc pop=npa geom=c
 heck
 ----------------------------------------------------------------------

 ------------------------------------
 CID_148018170_JID_667_Energie_kation
 ------------------------------------
 Structure from the checkpoint file:  "JID_667.chk"
 Charge =  1 Multiplicity = 2

 SCF Done:  E(UB3LYP) =  -389.176931764     A.U. after   24 cycles
 Normal termination of Gaussian 16 at Tue Dec  8 12:50:16 2020.
 Gaussian 16:  ES64L-G16RevA.03 25-Dec-2016

 ----------------------------------------------------------------------
 # B3LYP/6-311++G(d,p) empiricaldispersion=gd3bj scf=xqc pop=npa geom=c
 heck
 ----------------------------------------------------------------------

 -----------------------------------
 CID_148018170_JID_667_Energie_anion
 -----------------------------------
 Structure from the checkpoint file:  "JID_667.chk"
 Charge = -1 Multiplicity = 2

                         Standard orientation:
 ---------------------------------------------------------------------
 Center     Atomic      Atomic             Coordinates (Angstroms)
 Number     Number       Type             X           Y           Z
 ---------------------------------------------------------------------
      1          6           0       -2.659746   -1.254582   -0.115553
      2          6           0       -1.374274   -0.702787   -0.695218
      3          6           0       -0.863702    0.635733   -0.231249
      4          6           0       -0.151805   -0.585082    0.176874
      5          6           0        0.619738   -0.773258    1.424722
      6          6           0        1.320176   -0.370527    0.106407
      7          6           0        1.521564    1.140231   -0.203312
      8          6           0        0.124346    1.698115   -0.558438
      9          6           0       -0.947582    1.894808    0.535496
     10          6           0        2.298533   -1.349384   -0.505032
     11          1           0       -3.530306   -0.876436   -0.664003
     12          1           0       -2.765741   -0.962698    0.934194
     13          1           0       -2.673174   -2.349462   -0.167571
     14          1           0       -1.200520   -0.954333   -1.742552
     15          1           0        0.512197   -0.039212    2.224331
     16          1           0        0.826506   -1.781151    1.783305
     17          1           0        1.993608    1.678756    0.629458
     18          1           0        2.192989    1.250494   -1.063267
     19          1           0        0.037754    2.343870   -1.431080
     20          1           0       -0.644537    1.896851    1.583388
     21          1           0       -1.735499    2.611272    0.306895
     22          1           0        2.351687   -1.224585   -1.594249
     23          1           0        3.311212   -1.209203   -0.105467
     24          1           0        2.000334   -2.383764   -0.301558
 ---------------------------------------------------------------------

 SCF Done:  E(UB3LYP) =  -389.476541571     A.U. after   30 cycles

 The electronic state is 2-A.
 Alpha  occ. eigenvalues --  -10.08934 -10.07566 -10.06957 -10.06935 -10.06652
 Alpha  occ. eigenvalues --  -10.06532 -10.06267 -10.06132 -10.05589 -10.05178
 Alpha  occ. eigenvalues --   -0.81181  -0.72072  -0.69534  -0.61366  -0.58784
 Alpha  occ. eigenvalues --   -0.58377  -0.47279  -0.46615  -0.43606  -0.40643
 Alpha  occ. eigenvalues --   -0.37491  -0.34969  -0.33548  -0.32479  -0.32141
 Alpha  occ. eigenvalues --   -0.31109  -0.29147  -0.28279  -0.27831  -0.26853
 Alpha  occ. eigenvalues --   -0.24591  -0.22203  -0.19791  -0.17668  -0.16360
 Alpha  occ. eigenvalues --   -0.14805  -0.14233   0.04859
 Alpha virt. eigenvalues --    0.07422   0.07649   0.08054   0.09657   0.09736
 Alpha virt. eigenvalues --    0.10106   0.10389   0.10633   0.12171   0.12479
 Alpha virt. eigenvalues --    0.13157   0.13459   0.14132   0.15221   0.16007

  Beta  occ. eigenvalues --  -10.08919 -10.07566 -10.06941 -10.06912 -10.06625
  Beta  occ. eigenvalues --  -10.06534 -10.06266 -10.06113 -10.05553 -10.05141
  Beta  occ. eigenvalues --   -0.81164  -0.72053  -0.69502  -0.61321  -0.58733
  Beta  occ. eigenvalues --   -0.58317  -0.47218  -0.46556  -0.43560  -0.40611
  Beta  occ. eigenvalues --   -0.37449  -0.34927  -0.33509  -0.32438  -0.32103
  Beta  occ. eigenvalues --   -0.31067  -0.29113  -0.28241  -0.27794  -0.26810
  Beta  occ. eigenvalues --   -0.24557  -0.22172  -0.19760  -0.17643  -0.16331
  Beta  occ. eigenvalues --   -0.14788  -0.14215
  Beta virt. eigenvalues --    0.07107   0.08257   0.08449   0.08807   0.10257
  Beta virt. eigenvalues --    0.10363   0.10722   0.10955   0.11180   0.12695
  Beta virt. eigenvalues --    0.12986   0.13629   0.13863   0.14464   0.15308

 Mulliken charges and spin densities:
               1          2
     1  C    1.594236  -2.316712
     2  C   -2.610878   2.949610
     3  C    1.227866  -1.172398
     4  C    2.235900  -1.907210
     5  C    0.135669  -1.083840
     6  C   -3.200178   3.856263
     7  C    1.678811  -2.513644
     8  C   -1.423923   1.684980
     9  C    1.035284  -1.778833
    10  C    1.767864  -2.332286
    11  H   -0.166448   0.318301
    12  H   -0.151964   0.297700
    13  H   -0.294060   0.443813
    14  H   -0.657919   0.904730
    15  H   -0.091240   0.229184
    16  H   -0.266085   0.413382
    17  H   -0.225997   0.380769
    18  H   -0.120866   0.268748
    19  H   -0.437236   0.636818
    20  H   -0.078724   0.200205
    21  H   -0.232480   0.381758
    22  H   -0.137149   0.279938
    23  H   -0.308283   0.447295
    24  H   -0.272199   0.411430
 Sum of Mulliken charges =  -1.00000   1.00000

 Dipole moment (field-independent basis, Debye):
    X=              0.1733    Y=              1.5672    Z=              1.5967  Tot=              2.2440
 Quadrupole moment (field-independent basis, Debye-Ang):
   XX=           -116.0793   YY=           -107.4356   ZZ=            -97.4891
   XY=             -0.6543   XZ=             -0.5100   YZ=             -1.0690

 Summary of Natural Population Analysis:

                                       Natural Population
                Natural  -----------------------------------------------
    Atom  No    Charge         Core      Valence    Rydberg      Total
 -----------------------------------------------------------------------
      C    1   -0.27918      0.99965     2.27500    0.00454     3.27918
      C    2   -0.08466      0.99953     2.07344    0.01169     3.08466
      C    3   -0.04274      0.99938     2.02893    0.01443     3.04274
      C    4   -0.03871      0.99934     2.02447    0.01490     3.03871
      C    5   -0.18238      0.99957     2.17320    0.00962     3.18238
      C    6   -0.02890      0.99954     2.01751    0.01185     3.02890
      C    7   -0.19000      0.99960     2.18141    0.00900     3.19000
      C    8   -0.09931      0.99957     2.08955    0.01019     3.09931
      C    9   -0.18419      0.99959     2.17678    0.00782     3.18419
      C   10   -0.28182      0.99961     2.27616    0.00605     3.28182
      H   11    0.09990      0.00000     0.39863    0.00148     0.40010
      H   12    0.10033      0.00000     0.39813    0.00153     0.39967
      H   13    0.10113      0.00000     0.39730    0.00157     0.39887
      H   14    0.10723      0.00000     0.39067    0.00210     0.39277
      H   15    0.09829      0.00000     0.40017    0.00154     0.40171
      H   16    0.10275      0.00000     0.39605    0.00120     0.39725
      H   17    0.09934      0.00000     0.39930    0.00136     0.40066
      H   18    0.10353      0.00000     0.39485    0.00161     0.39647
      H   19    0.09971      0.00000     0.39906    0.00123     0.40029
      H   20    0.09721      0.00000     0.40126    0.00153     0.40279
      H   21    0.10227      0.00000     0.39641    0.00132     0.39773
      H   22    0.09984      0.00000     0.39870    0.00146     0.40016
      H   23    0.09844      0.00000     0.40024    0.00133     0.40156
      H   24    0.10192      0.00000     0.39664    0.00144     0.39808
 =======================================================================
   * Total *    0.00000      9.99537    26.88386    0.12077    37.00000

 Normal termination of Gaussian 16 at Tue Dec  8 13:04:42 2020.
