 Gaussian 16, Revision A.03,

 -----------------------------------------------------------
 # opt freq B3LYP/6-31G(d) empiricaldispersion=gd3bj scf=xqc
 -----------------------------------------------------------

 -------------------------------
 CID_129676419_JID_2127_neutraal
 -------------------------------
 Symbolic Z-matrix:
 Charge =  0 Multiplicity = 1

 SCF Done:  E(RB3LYP) =  -505.235904443     A.U. after   13 cycles
 SCF Done:  E(RB3LYP) =  -505.238380390     A.U. after   12 cycles
 SCF Done:  E(RB3LYP) =  -505.238350183     A.U. after   11 cycles
 SCF Done:  E(RB3LYP) =  -505.239355930     A.U. after   11 cycles
 SCF Done:  E(RB3LYP) =  -505.239615722     A.U. after   11 cycles
 SCF Done:  E(RB3LYP) =  -505.239389496     A.U. after   11 cycles
 SCF Done:  E(RB3LYP) =  -505.239704233     A.U. after   11 cycles
 SCF Done:  E(RB3LYP) =  -505.239726096     A.U. after    9 cycles
 SCF Done:  E(RB3LYP) =  -505.239727823     A.U. after    9 cycles
 SCF Done:  E(RB3LYP) =  -505.239730238     A.U. after    8 cycles
 SCF Done:  E(RB3LYP) =  -505.239730756     A.U. after    7 cycles
 SCF Done:  E(RB3LYP) =  -505.239730967     A.U. after    7 cycles
 Optimization completed.
    -- Stationary point found.
 Normal termination of Gaussian 16 at Wed Dec  9 16:51:01 2020.

 --------------------------------------------------------------------
 #N Geom=AllCheck Guess=TCheck SCRF=Check GenChk RB3LYP/6-31G(d) Freq
 --------------------------------------------------------------------

 Structure from the checkpoint file:  "JID_2127.chk"
 -------------------------------
 CID_129676419_JID_2127_neutraal
 -------------------------------
 Charge =  0 Multiplicity = 1

 SCF Done:  E(RB3LYP) =  -505.239730967     A.U. after    1 cycles

  Exact polarizability: 125.364  -5.371 113.802   8.583   9.584  99.278
 Approx polarizability: 171.895 -12.600 168.955  18.731  18.381 157.157

                      1                      2                      3
                      A                      A                      A
 Frequencies --     56.4693                91.0406               128.1521
 Red. masses --      3.5182                 3.1001                 3.2787
 Frc consts  --      0.0066                 0.0151                 0.0317
 IR Inten    --      0.1254                 0.1061                 1.3763

                      4                      5                      6
                      A                      A                      A
 Frequencies --    146.2198               165.1212               190.3545
 Red. masses --      2.7703                 3.0364                 2.5169
 Frc consts  --      0.0349                 0.0488                 0.0537
 IR Inten    --      2.7908                 0.2438                 3.2222

                      7                      8                      9
                      A                      A                      A
 Frequencies --    209.6003               242.4159               278.1111
 Red. masses --      1.5535                 2.9692                 1.8231
 Frc consts  --      0.0402                 0.1028                 0.0831
 IR Inten    --      1.2818                 0.2998                 1.0682

                     10                     11                     12
                      A                      A                      A
 Frequencies --    302.8421               322.6938               351.6890
 Red. masses --      1.7660                 1.3666                 1.7723
 Frc consts  --      0.0954                 0.0838                 0.1292
 IR Inten    --      9.2921                81.2255                61.8808

                     13                     14                     15
                      A                      A                      A
 Frequencies --    375.3837               399.6831               422.4730
 Red. masses --      2.5014                 2.4163                 2.3796
 Frc consts  --      0.2077                 0.2274                 0.2502
 IR Inten    --      1.1328                 3.2074                 6.3547

                     16                     17                     18
                      A                      A                      A
 Frequencies --    491.3408               541.0182               568.2058
 Red. masses --      2.1535                 2.5025                 4.1105
 Frc consts  --      0.3063                 0.4316                 0.7819
 IR Inten    --      1.1085                 7.8556                 0.6778

                     19                     20                     21
                      A                      A                      A
 Frequencies --    616.1444               679.1951               723.7920
 Red. masses --      4.3006                 1.8969                 1.7071
 Frc consts  --      0.9619                 0.5156                 0.5269
 IR Inten    --      3.6395                14.0490                55.9921

                     22                     23                     24
                      A                      A                      A
 Frequencies --    760.6465               787.7215               825.3514
 Red. masses --      1.4569                 1.5304                 2.1992
 Frc consts  --      0.4966                 0.5595                 0.8826
 IR Inten    --      2.2423                 2.7755                 1.2520

                     25                     26                     27
                      A                      A                      A
 Frequencies --    836.8832               895.8065               908.5742
 Red. masses --      1.7472                 1.8895                 1.8473
 Frc consts  --      0.7210                 0.8934                 0.8985
 IR Inten    --      3.7840                 6.4616                 7.6200

                     28                     29                     30
                      A                      A                      A
 Frequencies --    929.5232               972.0661               976.0355
 Red. masses --      2.0547                 2.3237                 1.4978
 Frc consts  --      1.0460                 1.2937                 0.8407
 IR Inten    --      5.2050                 3.6275                 0.7625

                     31                     32                     33
                      A                      A                      A
 Frequencies --    980.6983               988.0098              1000.2218
 Red. masses --      2.0342                 1.2942                 1.7151
 Frc consts  --      1.1527                 0.7443                 1.0109
 IR Inten    --      7.1073                 1.0686                 4.5779

                     34                     35                     36
                      A                      A                      A
 Frequencies --   1010.6592              1055.5100              1079.2487
 Red. masses --      1.9620                 3.2985                 2.4939
 Frc consts  --      1.1808                 2.1652                 1.7115
 IR Inten    --      2.0248                33.8118                28.6334

                     37                     38                     39
                      A                      A                      A
 Frequencies --   1099.2704              1104.3031              1136.8294
 Red. masses --      1.5412                 2.7151                 1.9973
 Frc consts  --      1.0973                 1.9508                 1.5209
 IR Inten    --      9.8806                17.9271                 2.6080

                     40                     41                     42
                      A                      A                      A
 Frequencies --   1155.2908              1178.0121              1209.4756
 Red. masses --      1.5902                 2.4265                 1.1263
 Frc consts  --      1.2505                 1.9839                 0.9707
 IR Inten    --      4.5711                 5.5355                 4.8708

                     43                     44                     45
                      A                      A                      A
 Frequencies --   1222.7471              1238.2556              1282.6142
 Red. masses --      1.1215                 1.2558                 1.3171
 Frc consts  --      0.9879                 1.1344                 1.2766
 IR Inten    --      5.7055                 9.4324                 0.0677

                     46                     47                     48
                      A                      A                      A
 Frequencies --   1296.4289              1313.8566              1349.4523
 Red. masses --      1.4316                 1.3768                 1.2455
 Frc consts  --      1.4177                 1.4003                 1.3363
 IR Inten    --      2.6181                 0.7775                 5.6486

                     49                     50                     51
                      A                      A                      A
 Frequencies --   1375.0444              1377.9620              1402.0968
 Red. masses --      1.4607                 1.4225                 1.3004
 Frc consts  --      1.6272                 1.5914                 1.5061
 IR Inten    --      1.3513                 4.3784                 2.0740

                     52                     53                     54
                      A                      A                      A
 Frequencies --   1405.9633              1418.1873              1420.1121
 Red. masses --      1.4265                 1.2606                 1.3986
 Frc consts  --      1.6614                 1.4938                 1.6618
 IR Inten    --      2.1689                18.7194                 2.4482

                     55                     56                     57
                      A                      A                      A
 Frequencies --   1435.4929              1445.6136              1459.3905
 Red. masses --      1.3439                 1.2740                 1.6267
 Frc consts  --      1.6316                 1.5686                 2.0413
 IR Inten    --     28.9519                 7.7823                 4.0335

                     58                     59                     60
                      A                      A                      A
 Frequencies --   1503.4609              1507.3877              1514.8579
 Red. masses --      1.0879                 1.0775                 1.0894
 Frc consts  --      1.4489                 1.4425                 1.4730
 IR Inten    --      1.2269                 2.8530                 8.4141

                     61                     62                     63
                      A                      A                      A
 Frequencies --   1529.7138              1532.4464              1536.2988
 Red. masses --      1.0698                 1.0613                 1.0594
 Frc consts  --      1.4750                 1.4684                 1.4732
 IR Inten    --      1.1599                 2.3742                 4.7671

                     64                     65                     66
                      A                      A                      A
 Frequencies --   1545.5791              1658.9589              1725.8272
 Red. masses --      1.0756                 7.6495                 5.5315
 Frc consts  --      1.5139                12.4037                 9.7071
 IR Inten    --      2.7166                 0.8538                 0.8449

                     67                     68                     69
                      A                      A                      A
 Frequencies --   2952.6138              2998.1449              3016.0885
 Red. masses --      1.0741                 1.0696                 1.0709
 Frc consts  --      5.5169                 5.6647                 5.7396
 IR Inten    --     41.6812                72.4446                17.4848

                     70                     71                     72
                      A                      A                      A
 Frequencies --   3034.1623              3040.9073              3044.6366
 Red. masses --      1.0689                 1.0640                 1.0429
 Frc consts  --      5.7979                 5.7969                 5.6962
 IR Inten    --     48.9532                36.8233                20.7458

                     73                     74                     75
                      A                      A                      A
 Frequencies --   3079.9370              3082.1175              3091.3091
 Red. masses --      1.0928                 1.0932                 1.0949
 Frc consts  --      6.1074                 6.1184                 6.1647
 IR Inten    --     10.0629                19.9281                30.7199

                     76                     77                     78
                      A                      A                      A
 Frequencies --   3105.1766              3108.9292              3118.6565
 Red. masses --      1.0953                 1.0975                 1.1007
 Frc consts  --      6.2226                 6.2498                 6.3075
 IR Inten    --     39.9606                53.3564                57.4411

                     79                     80                     81
                      A                      A                      A
 Frequencies --   3136.7679              3155.3041              3176.0955
 Red. masses --      1.0846                 1.0858                 1.0858
 Frc consts  --      6.2875                 6.3690                 6.4531
 IR Inten    --     11.0855                 7.8727                 2.4498

                     82                     83                     84
                      A                      A                      A
 Frequencies --   3187.1278              3201.4021              3757.5890
 Red. masses --      1.0941                 1.0986                 1.0660
 Frc consts  --      6.5482                 6.6339                 8.8677
 IR Inten    --     42.5113                30.7259                11.4435

 - Thermochemistry -
 -------------------
 Temperature   298.150 Kelvin.  Pressure   1.00000 Atm.
 Atom     1 has atomic number  6 and mass  12.00000

 Molecular mass:   166.13577 amu.
 Principal axes and moments of inertia in atomic units:
                           1         2         3
     Eigenvalues --  1540.265042307.611602994.40623
           X            0.99879   0.04919   0.00063
           Y           -0.04920   0.99863   0.01760
           Z            0.00023  -0.01761   0.99984
 This molecule is an asymmetric top.
 Rotational symmetry number  1.
 Warning -- assumption of classical behavior for rotation
           may cause significant error
 Rotational temperatures (Kelvin)      0.05623     0.03753     0.02893
 Rotational constants (GHZ):           1.17171     0.78208     0.60270
 Zero-point vibrational energy     711639.3 (Joules/Mol)
                                  170.08587 (Kcal/Mol)
 Warning -- explicit consideration of  19 degrees of freedom as
           vibrations may cause significant error
 Vibrational temperatures:     81.25   130.99   184.38   210.38   237.57
          (Kelvin)            273.88   301.57   348.78   400.14   435.72
                              464.28   506.00   540.09   575.05   607.84
                              706.93   778.40   817.52   886.49   977.21
                             1041.38  1094.40  1133.36  1187.50  1204.09
                             1288.87  1307.24  1337.38  1398.59  1404.30
                             1411.01  1421.53  1439.10  1454.11  1518.64
                             1552.80  1581.60  1588.85  1635.64  1662.21
                             1694.90  1740.17  1759.26  1781.57  1845.40
                             1865.27  1890.35  1941.56  1978.38  1982.58
                             2017.30  2022.87  2040.46  2043.22  2065.35
                             2079.92  2099.74  2163.14  2168.79  2179.54
                             2200.92  2204.85  2210.39  2223.74  2386.87
                             2483.08  4248.15  4313.66  4339.48  4365.48
                             4375.19  4380.55  4431.34  4434.48  4447.70
                             4467.66  4473.06  4487.05  4513.11  4539.78
                             4569.69  4585.57  4606.10  5406.33

 Zero-point correction=                           0.271049 (Hartree/Particle)
 Thermal correction to Energy=                    0.283606
 Thermal correction to Enthalpy=                  0.284550
 Thermal correction to Gibbs Free Energy=         0.233137
 Sum of electronic and zero-point Energies=           -504.968682
 Sum of electronic and thermal Energies=              -504.956125
 Sum of electronic and thermal Enthalpies=            -504.955181
 Sum of electronic and thermal Free Energies=         -505.006594

                     E (Thermal)             CV                S
                      KCal/Mol        Cal/Mol-Kelvin    Cal/Mol-Kelvin
 Total                  177.966             49.126            108.209
 Electronic               0.000              0.000              0.000
 Translational            0.889              2.981             41.231
 Rotational               0.889              2.981             30.743
 Vibrational            176.188             43.164             36.234
 Vibration     1          0.596              1.975              4.577
 Vibration     2          0.602              1.956              3.638
 Vibration     3          0.611              1.925              2.974
 Vibration     4          0.617              1.907              2.721
 Vibration     5          0.624              1.885              2.490
 Vibration     6          0.634              1.853              2.224
 Vibration     7          0.642              1.826              2.047
 Vibration     8          0.659              1.775              1.785
 Vibration     9          0.679              1.714              1.545
 Vibration    10          0.694              1.668              1.401
 Vibration    11          0.708              1.630              1.296
 Vibration    12          0.728              1.572              1.159
 Vibration    13          0.746              1.523              1.058
 Vibration    14          0.766              1.471              0.964
 Vibration    15          0.785              1.421              0.884
 Vibration    16          0.847              1.269              0.680
 Vibration    17          0.896              1.159              0.563
 Vibration    18          0.924              1.100              0.508
 Vibration    19          0.976              0.998              0.423

 Optimization completed.
    -- Stationary point found.
 Normal termination of Gaussian 16 at Wed Dec  9 16:59:12 2020.

 ----------------------------------------------------------------------
 # B3LYP/6-311++G(d,p) empiricaldispersion=gd3bj scf=xqc pop=npa geom=c
 heck
 ----------------------------------------------------------------------

 ---------------------------------------
 CID_129676419_JID_2127_Energie_neutraal
 ---------------------------------------
 Structure from the checkpoint file:  "JID_2127.chk"
 Charge =  0 Multiplicity = 1

 SCF Done:  E(RB3LYP) =  -505.389274320     A.U. after   14 cycles
 Normal termination of Gaussian 16 at Wed Dec  9 17:02:25 2020.

 ----------------------------------------------------------------------
 # B3LYP/6-311++G(d,p) empiricaldispersion=gd3bj scf=xqc pop=npa geom=c
 heck
 ----------------------------------------------------------------------

 -------------------------------------
 CID_129676419_JID_2127_Energie_kation
 -------------------------------------
 Structure from the checkpoint file:  "JID_2127.chk"
 Charge =  1 Multiplicity = 2

 SCF Done:  E(UB3LYP) =  -505.094122870     A.U. after   21 cycles
 Normal termination of Gaussian 16 at Wed Dec  9 17:09:20 2020.
 Gaussian 16:  ES64L-G16RevA.03 25-Dec-2016

 ----------------------------------------------------------------------
 # B3LYP/6-311++G(d,p) empiricaldispersion=gd3bj scf=xqc pop=npa geom=c
 heck
 ----------------------------------------------------------------------

 ------------------------------------
 CID_129676419_JID_2127_Energie_anion
 ------------------------------------
 Structure from the checkpoint file:  "JID_2127.chk"
 Charge = -1 Multiplicity = 2

                         Standard orientation:
 ---------------------------------------------------------------------
 Center     Atomic      Atomic             Coordinates (Angstroms)
 Number     Number       Type             X           Y           Z
 ---------------------------------------------------------------------
      1          6           0       -2.298324   -2.102585   -0.080761
      2          6           0       -2.612468   -0.603769   -0.074167
      3          6           0       -1.942282    0.177823    1.065312
      4          6           0       -0.413442    0.058675    1.218620
      5          6           0        0.531530    0.672414    0.141986
      6          6           0        0.607740   -0.156726   -1.163654
      7          6           0        1.384179   -1.440614   -1.010261
      8          6           0        2.424326   -1.498864   -0.164419
      9          6           0        2.770368   -0.332186    0.649527
     10          6           0        1.915528    0.695271    0.774877
     11          6           0        0.143982    2.126503   -0.197329
     12          8           0       -1.041999    2.262716   -0.971961
     13          1           0       -1.233396   -2.298106   -0.246681
     14          1           0       -2.857705   -2.621454   -0.867663
     15          1           0       -2.568505   -2.562667    0.878074
     16          1           0       -2.344719   -0.153471   -1.036164
     17          1           0       -3.698431   -0.468179    0.019370
     18          1           0       -2.220552    1.232066    0.972099
     19          1           0       -2.373127   -0.175602    2.013760
     20          1           0       -0.154700    0.547935    2.167741
     21          1           0       -0.129878   -0.992349    1.346938
     22          1           0       -0.392033   -0.362488   -1.549465
     23          1           0        1.121339    0.453428   -1.930165
     24          1           0        1.119770   -2.289119   -1.636101
     25          1           0        3.027746   -2.398640   -0.075931
     26          1           0        3.724277   -0.323738    1.171382
     27          1           0        2.156824    1.539302    1.419785
     28          1           0       -0.043153    2.681824    0.728406
     29          1           0        0.992488    2.611368   -0.705976
     30          1           0       -0.857084    1.902509   -1.852103
 ---------------------------------------------------------------------

 SCF Done:  E(UB3LYP) =  -505.375612317     A.U. after   33 cycles
 SCF Done:  E(UB3LYP) =  -505.375612317     a.u. after    1 cycles

 The electronic state is 2-A.
 Alpha  occ. eigenvalues --  -19.00907 -10.10041 -10.06591 -10.04967 -10.04895
 Alpha  occ. eigenvalues --  -10.04708 -10.04577 -10.04325 -10.04285 -10.03846
 Alpha  occ. eigenvalues --  -10.03843 -10.03730  -0.91104  -0.72938  -0.67966
 Alpha  occ. eigenvalues --   -0.64825  -0.61975  -0.59626  -0.55707  -0.53219
 Alpha  occ. eigenvalues --   -0.47767  -0.46728  -0.43825  -0.39765  -0.38400
 Alpha  occ. eigenvalues --   -0.35877  -0.35068  -0.34110  -0.33069  -0.31072
 Alpha  occ. eigenvalues --   -0.29901  -0.29141  -0.28318  -0.28261  -0.26588
 Alpha  occ. eigenvalues --   -0.25670  -0.24666  -0.23189  -0.22355  -0.21436
 Alpha  occ. eigenvalues --   -0.20713  -0.19517  -0.18891  -0.18438  -0.15751
 Alpha  occ. eigenvalues --   -0.09720   0.05142
 Alpha virt. eigenvalues --    0.07341   0.07863   0.07955   0.08455   0.09769
 Alpha virt. eigenvalues --    0.09869   0.10366   0.10907   0.11516   0.12272
 Alpha virt. eigenvalues --    0.12450   0.13470   0.13671   0.14192   0.15080

  Beta  occ. eigenvalues --  -19.00870 -10.10022 -10.06601 -10.04961 -10.04884
  Beta  occ. eigenvalues --  -10.04697 -10.04542 -10.04309 -10.04251 -10.03785
  Beta  occ. eigenvalues --  -10.03641 -10.03568  -0.91013  -0.72762  -0.67891
  Beta  occ. eigenvalues --   -0.64688  -0.61721  -0.59554  -0.55597  -0.53139
  Beta  occ. eigenvalues --   -0.47642  -0.46414  -0.43744  -0.39675  -0.38335
  Beta  occ. eigenvalues --   -0.35710  -0.34994  -0.34061  -0.32985  -0.30985
  Beta  occ. eigenvalues --   -0.29807  -0.29050  -0.28255  -0.28149  -0.26522
  Beta  occ. eigenvalues --   -0.25605  -0.24560  -0.23084  -0.22304  -0.21378
  Beta  occ. eigenvalues --   -0.20647  -0.19447  -0.18663  -0.17983  -0.15691
  Beta  occ. eigenvalues --   -0.08868
  Beta virt. eigenvalues --    0.07357   0.08207   0.08601   0.08778   0.09177
  Beta virt. eigenvalues --    0.10011   0.10125   0.10562   0.11068   0.11765
  Beta virt. eigenvalues --    0.12376   0.12800   0.13659   0.13745   0.14317

 Mulliken charges and spin densities:
               1          2
     1  C    0.659869  -1.299179
     2  C   -0.506727   0.353443
     3  C   -0.522847   0.250924
     4  C   -0.144105  -0.349153
     5  C   -1.421295   2.692822
     6  C    1.459542  -2.063732
     7  C   -1.541925   1.425720
     8  C    1.075961  -1.443795
     9  C   -0.635067   0.482695
    10  C    0.738581  -0.997419
    11  C    0.611268  -1.300953
    12  O   -0.188474   0.000330
    13  H    0.134349   0.044062
    14  H   -0.399200   0.530612
    15  H   -0.061081   0.178668
    16  H   -0.132198   0.251230
    17  H   -0.199431   0.348645
    18  H    0.205676  -0.043494
    19  H   -0.072839   0.213854
    20  H    0.061356   0.104389
    21  H    0.238802  -0.083036
    22  H    0.738423  -0.671153
    23  H   -0.578545   0.747623
    24  H   -0.339816   0.487893
    25  H   -0.099338   0.225603
    26  H   -0.154053   0.283904
    27  H    0.120436   0.007894
    28  H    0.036237   0.121469
    29  H    0.055172   0.106802
    30  H   -0.138732   0.393332
 Sum of Mulliken charges =  -1.00000   1.00000

 Dipole moment (field-independent basis, Debye):
    X=              0.4190    Y=              1.5183    Z=              3.3001  Tot=              3.6567
 Quadrupole moment (field-independent basis, Debye-Ang):
   XX=           -127.4752   YY=           -114.3850   ZZ=           -105.1127
   XY=             -0.9318   XZ=             -0.3215   YZ=              2.5346

 Summary of Natural Population Analysis:

                                       Natural Population
                Natural  -----------------------------------------------
    Atom  No    Charge         Core      Valence    Rydberg      Total
 -----------------------------------------------------------------------
      C    1   -0.29037      0.99966     2.28506    0.00565     3.29037
      C    2   -0.19098      0.99964     2.18310    0.00825     3.19098
      C    3   -0.18765      0.99962     2.17996    0.00807     3.18765
      C    4   -0.18397      0.99958     2.17566    0.00873     3.18397
      C    5   -0.06568      0.99954     2.05293    0.01321     3.06568
      C    6   -0.21753      0.99959     2.20524    0.01271     3.21753
      C    7   -0.05475      0.99954     2.04395    0.01126     3.05475
      C    8   -0.11495      0.99952     2.10511    0.01033     3.11495
      C    9   -0.11676      0.99952     2.10697    0.01027     3.11676
      C   10   -0.04685      0.99951     2.03655    0.01078     3.04685
      C   11   -0.00161      0.99952     1.98687    0.01522     3.00161
      O   12   -0.37226      0.99990     3.36546    0.00691     4.37226
      H   13    0.10253      0.00000     0.39615    0.00132     0.39747
      H   14    0.09755      0.00000     0.40129    0.00115     0.40245
      H   15    0.09178      0.00000     0.40720    0.00102     0.40822
      H   16    0.09526      0.00000     0.40319    0.00155     0.40474
      H   17    0.09155      0.00000     0.40736    0.00109     0.40845
      H   18    0.10189      0.00000     0.39671    0.00141     0.39811
      H   19    0.08843      0.00000     0.41045    0.00112     0.41157
      H   20    0.09589      0.00000     0.40296    0.00115     0.40411
      H   21    0.10319      0.00000     0.39557    0.00125     0.39681
      H   22    0.10378      0.00000     0.39435    0.00187     0.39622
      H   23    0.10576      0.00000     0.39173    0.00251     0.39424
      H   24    0.09257      0.00000     0.40645    0.00097     0.40743
      H   25    0.09530      0.00000     0.40379    0.00091     0.40470
      H   26    0.09363      0.00000     0.40505    0.00132     0.40637
      H   27    0.09015      0.00000     0.40879    0.00106     0.40985
      H   28    0.08332      0.00000     0.41557    0.00111     0.41668
      H   29    0.08028      0.00000     0.41839    0.00134     0.41972
      H   30    0.23051      0.00000     0.26492    0.00456     0.26949
 =======================================================================
   * Total *    0.00000     11.99512    33.85676    0.14812    46.00000

 Normal termination of Gaussian 16 at Wed Dec  9 17:20:53 2020.
