 Gaussian 16, Revision A.03,

 -----------------------------------------------------------
 # opt freq B3LYP/6-31G(d) empiricaldispersion=gd3bj scf=xqc
 -----------------------------------------------------------

 -------------------------------
 CID_136316579_JID_2610_neutraal
 -------------------------------
 Symbolic Z-matrix:
 Charge =  0 Multiplicity = 1

 SCF Done:  E(RB3LYP) =  -532.325649750     A.U. after   14 cycles
 SCF Done:  E(RB3LYP) =  -532.329141755     A.U. after   11 cycles
 SCF Done:  E(RB3LYP) =  -532.329823784     A.U. after   11 cycles
 SCF Done:  E(RB3LYP) =  -532.329907805     A.U. after   10 cycles
 SCF Done:  E(RB3LYP) =  -532.329981558     A.U. after   10 cycles
 SCF Done:  E(RB3LYP) =  -532.330010383     A.U. after    9 cycles
 SCF Done:  E(RB3LYP) =  -532.330025674     A.U. after    9 cycles
 SCF Done:  E(RB3LYP) =  -532.330027369     A.U. after    8 cycles
 SCF Done:  E(RB3LYP) =  -532.330027847     A.U. after    8 cycles
 SCF Done:  E(RB3LYP) =  -532.330027962     A.U. after    7 cycles
 Optimization completed.
    -- Stationary point found.

 1\1\GINC-NODE315\FOpt\RB3LYP\6-31G(d)\C8H14N4\VSC10255\09-Dec-2020\0\\
 # opt freq B3LYP/6-31G(d) empiricaldispersion=gd3bj scf=xqc\\CID_13631
 6579_JID_2610_neutraal\\0,1\C,0.9628164475,-0.0620854525,-0.0919622448
 \C,0.317038805,-1.4346831746,-0.3363244795\C,0.9870823481,-2.486522905
 7,0.5600272815\C,-1.2137021042,-1.3871504894,-0.1311322671\C,-1.886852
 4042,-2.7386190547,-0.437497538\N,-3.3185420064,-2.6600351095,-0.15069
 90611\C,-3.9740567958,-1.575584913,-0.6842697898\N,-5.2749301337,-1.41
 26202349,-0.8874045548\C,-5.3235784461,-0.136243711,-1.3786250044\N,-4

 Normal termination of Gaussian 16 at Wed Dec  9 17:40:42 2020.

 --------------------------------------------------------------------
 #N Geom=AllCheck Guess=TCheck SCRF=Check GenChk RB3LYP/6-31G(d) Freq
 --------------------------------------------------------------------

 Structure from the checkpoint file:  "JID_2610.chk"
 -------------------------------
 CID_136316579_JID_2610_neutraal
 -------------------------------
 Charge =  0 Multiplicity = 1

 SCF Done:  E(RB3LYP) =  -532.330027962     A.U. after    1 cycles

  Exact polarizability: 133.719   3.739 103.438   2.257  -0.809  70.716
 Approx polarizability: 170.579   2.055 164.957   4.749  -5.082 112.723

                      1                      2                      3
                      A                      A                      A
 Frequencies --     51.0341                78.3032               152.6914
 Red. masses --      2.9380                 3.6189                 2.7046
 Frc consts  --      0.0045                 0.0131                 0.0372
 IR Inten    --      0.5602                 0.2834                 1.3509

                      4                      5                      6
                      A                      A                      A
 Frequencies --    165.7912               194.2847               229.1183
 Red. masses --      2.7888                 2.7098                 1.2468
 Frc consts  --      0.0452                 0.0603                 0.0386
 IR Inten    --      0.5686                 3.1565                 0.2196

                      7                      8                      9
                      A                      A                      A
 Frequencies --    253.9502               320.3384               324.0035
 Red. masses --      1.2941                 2.7063                 3.7040
 Frc consts  --      0.0492                 0.1636                 0.2291
 IR Inten    --      0.9906                 2.4529                 2.6324

                     10                     11                     12
                      A                      A                      A
 Frequencies --    350.2698               374.9390               438.3397
 Red. masses --      3.2459                 2.4503                 2.4444
 Frc consts  --      0.2346                 0.2030                 0.2767
 IR Inten    --      2.9334                 1.2240                12.0319

                     13                     14                     15
                      A                      A                      A
 Frequencies --    452.1873               502.1893               543.0427
 Red. masses --      2.9418                 2.2684                 1.8430
 Frc consts  --      0.3544                 0.3371                 0.3202
 IR Inten    --      2.5063                38.2422                31.0232

                     16                     17                     18
                      A                      A                      A
 Frequencies --    608.2334               656.2966               734.1669
 Red. masses --      3.1714                 4.7028                 8.0977
 Frc consts  --      0.6913                 1.1935                 2.5716
 IR Inten    --     46.7921                 3.5564                19.9440

                     19                     20                     21
                      A                      A                      A
 Frequencies --    754.0782               789.7199               879.9895
 Red. masses --      3.0152                 4.7937                 2.2691
 Frc consts  --      1.0102                 1.7615                 1.0353
 IR Inten    --     25.3044                 7.7709                 2.9098

                     22                     23                     24
                      A                      A                      A
 Frequencies --    886.5458               898.3864               924.7776
 Red. masses --      1.3650                 2.2815                 1.5828
 Frc consts  --      0.6321                 1.0849                 0.7976
 IR Inten    --      5.7888                13.1268                 2.2943

                     25                     26                     27
                      A                      A                      A
 Frequencies --    943.8811               976.4339               981.0132
 Red. masses --      1.1652                 1.6409                 1.4628
 Frc consts  --      0.6116                 0.9218                 0.8294
 IR Inten    --      1.0625                 2.4648                 0.3194

                     28                     29                     30
                      A                      A                      A
 Frequencies --    992.2042              1055.2033              1086.5992
 Red. masses --      9.1126                 3.0987                 2.2438
 Frc consts  --      5.2856                 2.0329                 1.5609
 IR Inten    --      3.9988                 5.7327                13.5975

                     31                     32                     33
                      A                      A                      A
 Frequencies --   1116.3880              1169.8666              1178.4245
 Red. masses --      2.8874                 2.3465                 2.0559
 Frc consts  --      2.1203                 1.8921                 1.6821
 IR Inten    --     13.1002                 0.9577                17.3257

                     34                     35                     36
                      A                      A                      A
 Frequencies --   1186.7993              1205.9999              1224.8958
 Red. masses --      2.2420                 1.6873                 1.9779
 Frc consts  --      1.8606                 1.4459                 1.7484
 IR Inten    --     13.0107                 3.4967                11.8635

                     37                     38                     39
                      A                      A                      A
 Frequencies --   1252.6157              1284.6599              1287.7310
 Red. masses --      1.7908                 1.6210                 1.5857
 Frc consts  --      1.6555                 1.5762                 1.5493
 IR Inten    --     11.0788                13.0759                13.9323

                     40                     41                     42
                      A                      A                      A
 Frequencies --   1298.8238              1325.2453              1344.0767
 Red. masses --      2.1104                 1.3005                 2.4208
 Frc consts  --      2.0975                 1.3457                 2.5766
 IR Inten    --     16.0792                10.5928                15.1090

                     43                     44                     45
                      A                      A                      A
 Frequencies --   1371.1877              1389.4657              1391.2978
 Red. masses --      1.4219                 1.3828                 1.4228
 Frc consts  --      1.5751                 1.5729                 1.6227
 IR Inten    --      8.3537                 2.1088                 2.3078

                     46                     47                     48
                      A                      A                      A
 Frequencies --   1417.2908              1430.7436              1435.5273
 Red. masses --      1.5438                 1.7329                 1.3480
 Frc consts  --      1.8271                 2.0899                 1.6367
 IR Inten    --      3.3616                44.0029                25.4701

                     49                     50                     51
                      A                      A                      A
 Frequencies --   1454.4110              1500.3067              1517.2754
 Red. masses --      1.2247                 2.3933                 1.0611
 Frc consts  --      1.5263                 3.1740                 1.4392
 IR Inten    --      5.0768                11.0146                 0.3409

                     52                     53                     54
                      A                      A                      A
 Frequencies --   1526.5733              1529.9188              1535.4329
 Red. masses --      1.1486                 1.0815                 1.0697
 Frc consts  --      1.5771                 1.4914                 1.4859
 IR Inten    --      4.5400                14.2801                 5.4786

                     55                     56                     57
                      A                      A                      A
 Frequencies --   1545.3013              1550.9740              1589.7641
 Red. masses --      1.0887                 1.1091                 3.1493
 Frc consts  --      1.5317                 1.5719                 4.6896
 IR Inten    --      4.0621                23.3150                63.7526

                     58                     59                     60
                      A                      A                      A
 Frequencies --   1648.3375              2973.2577              3007.6723
 Red. masses --      5.4080                 1.0736                 1.0822
 Frc consts  --      8.6573                 5.5917                 5.7681
 IR Inten    --    229.7961                48.9504                14.8561

                     61                     62                     63
                      A                      A                      A
 Frequencies --   3032.8795              3046.1461              3046.9385
 Red. masses --      1.0750                 1.0381                 1.0703
 Frc consts  --      5.8260                 5.6755                 5.8547
 IR Inten    --     14.8295                18.3546                37.3125

                     64                     65                     66
                      A                      A                      A
 Frequencies --   3052.1092              3109.9119              3116.3225
 Red. masses --      1.0462                 1.1008                 1.0997
 Frc consts  --      5.7419                 6.2727                 6.2922
 IR Inten    --     37.3540                 1.0533                61.9953

                     67                     68                     69
                      A                      A                      A
 Frequencies --   3121.2136              3124.1456              3132.5908
 Red. masses --      1.0987                 1.0988                 1.0970
 Frc consts  --      6.3062                 6.3187                 6.3428
 IR Inten    --      2.6909                63.9917                22.4812

                     70                     71                     72
                      A                      A                      A
 Frequencies --   3137.7118              3269.2817              3598.5052
 Red. masses --      1.0916                 1.0963                 1.0761
 Frc consts  --      6.3322                 6.9040                 8.2103
 IR Inten    --     25.6387                12.3085                24.6560

 - Thermochemistry -
 -------------------
 Temperature   298.150 Kelvin.  Pressure   1.00000 Atm.
 Atom     1 has atomic number  6 and mass  12.00000

 Molecular mass:   166.12185 amu.
 Principal axes and moments of inertia in atomic units:
                           1         2         3
     Eigenvalues --   797.411683111.300203791.77764
           X            0.99999  -0.00308  -0.00265
           Y            0.00310   0.99995   0.00923
           Z            0.00262  -0.00924   0.99995
 This molecule is an asymmetric top.
 Rotational symmetry number  1.
 Warning -- assumption of classical behavior for rotation
           may cause significant error
 Rotational temperatures (Kelvin)      0.10862     0.02784     0.02284
 Rotational constants (GHZ):           2.26325     0.58006     0.47596
 Zero-point vibrational energy     598587.6 (Joules/Mol)
                                  143.06587 (Kcal/Mol)
 Warning -- explicit consideration of  16 degrees of freedom as
           vibrations may cause significant error
 Vibrational temperatures:     73.43   112.66   219.69   238.54   279.53
          (Kelvin)            329.65   365.38   460.90   466.17   503.96
                              539.45   630.67   650.60   722.54   781.32
                              875.11   944.26  1056.30  1084.95  1136.23
                             1266.11  1275.54  1292.58  1330.55  1358.03
                             1404.87  1411.46  1427.56  1518.20  1563.37
                             1606.23  1683.18  1695.49  1707.54  1735.16
                             1762.35  1802.23  1848.34  1852.76  1868.72
                             1906.73  1933.83  1972.83  1999.13  2001.77
                             2039.17  2058.52  2065.40  2092.57  2158.61
                             2183.02  2196.40  2201.21  2209.15  2223.34
                             2231.51  2287.32  2371.59  4277.85  4327.37
                             4363.64  4382.72  4383.86  4391.30  4474.47
                             4483.69  4490.73  4494.95  4507.10  4514.47
                             4703.77  5177.45

 Zero-point correction=                           0.227990 (Hartree/Particle)
 Thermal correction to Energy=                    0.238952
 Thermal correction to Enthalpy=                  0.239896
 Thermal correction to Gibbs Free Energy=         0.191237
 Sum of electronic and zero-point Energies=           -532.102038
 Sum of electronic and thermal Energies=              -532.091076
 Sum of electronic and thermal Enthalpies=            -532.090132
 Sum of electronic and thermal Free Energies=         -532.138791

                     E (Thermal)             CV                S
                      KCal/Mol        Cal/Mol-Kelvin    Cal/Mol-Kelvin
 Total                  149.944             42.438            102.412
 Electronic               0.000              0.000              0.000
 Translational            0.889              2.981             41.231
 Rotational               0.889              2.981             30.621
 Vibrational            148.167             36.476             30.560
 Vibration     1          0.595              1.977              4.777
 Vibration     2          0.600              1.964              3.933
 Vibration     3          0.619              1.900              2.638
 Vibration     4          0.624              1.885              2.483
 Vibration     5          0.635              1.848              2.187
 Vibration     6          0.652              1.797              1.886
 Vibration     7          0.665              1.756              1.703
 Vibration     8          0.706              1.635              1.308
 Vibration     9          0.709              1.627              1.290
 Vibration    10          0.727              1.575              1.165
 Vibration    11          0.746              1.523              1.060
 Vibration    12          0.799              1.387              0.832
 Vibration    13          0.811              1.356              0.789
 Vibration    14          0.858              1.245              0.653
 Vibration    15          0.898              1.155              0.559
 Vibration    16          0.967              1.014              0.436

                           ! Non-Optimized Parameters !

 1\1\GINC-NODE315\Freq\RB3LYP\6-31G(d)\C8H14N4\VSC10255\09-Dec-2020\0\\
 #N Geom=AllCheck Guess=TCheck SCRF=Check GenChk RB3LYP/6-31G(d) Freq\\
 CID_136316579_JID_2610_neutraal\\0,1\C,0.9628164475,-0.0620854525,-0.0
 919622448\C,0.317038805,-1.4346831746,-0.3363244795\C,0.9870823481,-2.
 4865229057,0.5600272815\C,-1.2137021042,-1.3871504894,-0.1311322671\C,
 -1.8868524042,-2.7386190547,-0.437497538\N,-3.3185420064,-2.6600351095
 ,-0.1506990611\C,-3.9740567958,-1.575584913,-0.6842697898\N,-5.2749301
 337,-1.4126202349,-0.8874045548\C,-5.3235784461,-0.136243711,-1.378625

 Normal termination of Gaussian 16 at Wed Dec  9 17:47:38 2020.

 ----------------------------------------------------------------------
 # B3LYP/6-311++G(d,p) empiricaldispersion=gd3bj scf=xqc pop=npa geom=c
 heck
 ----------------------------------------------------------------------

 ---------------------------------------
 CID_136316579_JID_2610_Energie_neutraal
 ---------------------------------------
 Structure from the checkpoint file:  "JID_2610.chk"
 Charge =  0 Multiplicity = 1

 SCF Done:  E(RB3LYP) =  -532.476311148     A.U. after   13 cycles
 Normal termination of Gaussian 16 at Wed Dec  9 17:50:08 2020.

 ----------------------------------------------------------------------
 # B3LYP/6-311++G(d,p) empiricaldispersion=gd3bj scf=xqc pop=npa geom=c
 heck
 ----------------------------------------------------------------------

 -------------------------------------
 CID_136316579_JID_2610_Energie_kation
 -------------------------------------
 Structure from the checkpoint file:  "JID_2610.chk"
 Charge =  1 Multiplicity = 2

 SCF Done:  E(UB3LYP) =  -532.178451702     A.U. after   20 cycles
 Normal termination of Gaussian 16 at Wed Dec  9 17:54:30 2020.
 Gaussian 16:  ES64L-G16RevA.03 25-Dec-2016

 ------------------------------------
 CID_136316579_JID_2610_Energie_anion
 ------------------------------------
 Structure from the checkpoint file:  "JID_2610.chk"
 Charge = -1 Multiplicity = 2

                         Standard orientation:
 ---------------------------------------------------------------------
 Center     Atomic      Atomic             Coordinates (Angstroms)
 Number     Number       Type             X           Y           Z
 ---------------------------------------------------------------------
      1          6           0        2.960142   -1.574894   -0.208640
      2          6           0        2.474477   -0.203899    0.286605
      3          6           0        3.463181    0.884350   -0.157187
      4          6           0        1.033578    0.093156   -0.185728
      5          6           0        0.505051    1.434373    0.357644
      6          7           0       -0.826751    1.702547   -0.183236
      7          6           0       -1.727139    0.667722   -0.089059
      8          7           0       -3.050772    0.712752   -0.166897
      9          6           0       -3.382413   -0.610666   -0.060214
     10          7           0       -2.376567   -1.457837    0.077154
     11          7           0       -1.296958   -0.606161    0.055841
     12          6           0        0.074531   -1.045635    0.215413
     13          1           0        2.926245   -1.627489   -1.304218
     14          1           0        2.360087   -2.399855    0.187061
     15          1           0        3.996750   -1.746671    0.100199
     16          1           0        2.462904   -0.226574    1.387345
     17          1           0        3.451069    1.000005   -1.248322
     18          1           0        3.244647    1.859854    0.287573
     19          1           0        4.483274    0.614545    0.136412
     20          1           0        1.033139    0.167345   -1.282122
     21          1           0        0.506251    1.402547    1.461374
     22          1           0        1.156972    2.252417    0.046678
     23          1           0       -1.231460    2.604497    0.034012
     24          1           0       -4.407475   -0.955309   -0.087793
     25          1           0        0.222408   -1.928214   -0.410513
     26          1           0        0.244074   -1.343240    1.259277
 ---------------------------------------------------------------------

 SCF Done:  E(UB3LYP) =  -532.464798573     A.U. after   29 cycles

 The electronic state is 2-A.
 Alpha  occ. eigenvalues --  -14.28856 -14.23850 -14.23418 -14.19999 -10.17130
 Alpha  occ. eigenvalues --  -10.12194 -10.12193 -10.10954 -10.09201 -10.08199
 Alpha  occ. eigenvalues --  -10.06179 -10.05503  -0.98027  -0.85311  -0.80980
 Alpha  occ. eigenvalues --   -0.73400  -0.72133  -0.65535  -0.60525  -0.58023
 Alpha  occ. eigenvalues --   -0.55125  -0.53397  -0.47824  -0.46071  -0.43780
 Alpha  occ. eigenvalues --   -0.40487  -0.39660  -0.37728  -0.36857  -0.35122
 Alpha  occ. eigenvalues --   -0.33560  -0.32676  -0.32290  -0.29813  -0.28650
 Alpha  occ. eigenvalues --   -0.27103  -0.26660  -0.24008  -0.23721  -0.23091
 Alpha  occ. eigenvalues --   -0.22575  -0.21997  -0.18543  -0.18322  -0.12568
 Alpha  occ. eigenvalues --    0.04455
 Alpha virt. eigenvalues --    0.06830   0.07719   0.08063   0.08691   0.09352
 Alpha virt. eigenvalues --    0.10193   0.10477   0.11131   0.11510   0.11667
 Alpha virt. eigenvalues --    0.12661   0.13359   0.13769   0.14419   0.15332

  Beta  occ. eigenvalues --  -14.28852 -14.23829 -14.23413 -14.19994 -10.17130
  Beta  occ. eigenvalues --  -10.12194 -10.12179 -10.10911 -10.09196 -10.08179
  Beta  occ. eigenvalues --  -10.06145 -10.05456  -0.98016  -0.85277  -0.80970
  Beta  occ. eigenvalues --   -0.73374  -0.72101  -0.65490  -0.60469  -0.57944
  Beta  occ. eigenvalues --   -0.55072  -0.53380  -0.47757  -0.46014  -0.43747
  Beta  occ. eigenvalues --   -0.40433  -0.39629  -0.37692  -0.36799  -0.35069
  Beta  occ. eigenvalues --   -0.33525  -0.32654  -0.32249  -0.29758  -0.28606
  Beta  occ. eigenvalues --   -0.27055  -0.26613  -0.23973  -0.23677  -0.23026
  Beta  occ. eigenvalues --   -0.22534  -0.21974  -0.18528  -0.18307  -0.12549
  Beta virt. eigenvalues --    0.07085   0.08022   0.08352   0.08495   0.09226
  Beta virt. eigenvalues --    0.09955   0.10633   0.11163   0.11570   0.11853
  Beta virt. eigenvalues --    0.12172   0.13219   0.13698   0.14110   0.14680

 Mulliken charges and spin densities:
               1          2
     1  C    0.824389  -1.516462
     2  C   -2.337417   2.746129
     3  C    1.519838  -2.195825
     4  C    0.533364  -0.359943
     5  C    1.004574  -1.635544
     6  N   -0.310502   0.164632
     7  C    0.565820  -0.444898
     8  N   -0.209286   0.006603
     9  C    0.054003  -0.083663
    10  N   -0.065409  -0.032395
    11  N   -0.074146   0.048705
    12  C    0.054152  -0.819590
    13  H   -0.141999   0.291325
    14  H   -0.059692   0.190905
    15  H   -0.488233   0.649876
    16  H   -0.134818   0.312019
    17  H   -0.191420   0.335563
    18  H   -0.462089   0.596907
    19  H   -0.471121   0.625652
    20  H    0.150385   0.069283
    21  H   -0.434164   0.638980
    22  H   -0.390070   0.589235
    23  H   -0.097321   0.398125
    24  H    0.122661   0.023711
    25  H    0.232665  -0.022153
    26  H   -0.194164   0.422821
 Sum of Mulliken charges =  -1.00000   1.00000

 Dipole moment (field-independent basis, Debye):
    X=             -6.0188    Y=             -3.0670    Z=             -1.9116  Tot=              7.0204
 Quadrupole moment (field-independent basis, Debye-Ang):
   XX=           -150.2688   YY=           -122.1145   ZZ=           -102.6910
   XY=             -0.8117   XZ=             -4.4338   YZ=             -0.5176

 Summary of Natural Population Analysis:

                                       Natural Population
                Natural  -----------------------------------------------
    Atom  No    Charge         Core      Valence    Rydberg      Total
 -----------------------------------------------------------------------
      C    1   -0.28513      0.99965     2.27890    0.00657     3.28513
      C    2   -0.11174      0.99960     2.10105    0.01109     3.11174
      C    3   -0.28475      0.99965     2.27850    0.00660     3.28475
      C    4   -0.11381      0.99957     2.10401    0.01023     3.11381
      C    5   -0.08525      0.99959     2.07388    0.01178     3.08525
      N    6   -0.31500      0.99967     2.80482    0.01050     3.81500
      C    7    0.28980      0.99959     1.69307    0.01755     2.71020
      N    8   -0.28994      0.99970     2.78078    0.00947     3.78994
      C    9    0.09054      0.99971     1.89023    0.01952     2.90946
      N   10   -0.17199      0.99974     2.66134    0.01091     3.67199
      N   11   -0.13322      0.99959     2.62238    0.01124     3.63322
      C   12   -0.07858      0.99960     2.06806    0.01093     3.07858
      H   13    0.09608      0.00000     0.40296    0.00097     0.40392
      H   14    0.09834      0.00000     0.40064    0.00101     0.40166
      H   15    0.10483      0.00000     0.39395    0.00122     0.39517
      H   16    0.09624      0.00000     0.40134    0.00242     0.40376
      H   17    0.09630      0.00000     0.40245    0.00125     0.40370
      H   18    0.10366      0.00000     0.39406    0.00227     0.39634
      H   19    0.10371      0.00000     0.39463    0.00167     0.39629
      H   20    0.09914      0.00000     0.39879    0.00206     0.40086
      H   21    0.08930      0.00000     0.40788    0.00282     0.41070
      H   22    0.10946      0.00000     0.38782    0.00272     0.39054
      H   23    0.19738      0.00000     0.29916    0.00346     0.30262
      H   24    0.08825      0.00000     0.41101    0.00075     0.41175
      H   25    0.10660      0.00000     0.39207    0.00133     0.39340
      H   26    0.09979      0.00000     0.39883    0.00138     0.40021
 =======================================================================
   * Total *   -0.00000     11.99566    32.84260    0.16174    45.00000

 Normal termination of Gaussian 16 at Wed Dec  9 18:01:00 2020.
