 Gaussian 16, Revision A.03,

 -----------------------------------------------------------
 # opt freq B3LYP/6-31G(d) empiricaldispersion=gd3bj scf=xqc
 -----------------------------------------------------------

 -------------------------------
 CID_144399178_JID_2110_neutraal
 -------------------------------
 Symbolic Z-matrix:
 Charge =  0 Multiplicity = 1

 SCF Done:  E(RB3LYP) =  -516.458423106     A.U. after   16 cycles
 SCF Done:  E(RB3LYP) =  -516.460895986     A.U. after   12 cycles
 SCF Done:  E(RB3LYP) =  -516.461080221     A.U. after   12 cycles
 SCF Done:  E(RB3LYP) =  -516.461093657     A.U. after   11 cycles
 SCF Done:  E(RB3LYP) =  -516.461095366     A.U. after    9 cycles
 SCF Done:  E(RB3LYP) =  -516.461098011     A.U. after    8 cycles
 SCF Done:  E(RB3LYP) =  -516.461100547     A.U. after    9 cycles
 SCF Done:  E(RB3LYP) =  -516.461101775     A.U. after    9 cycles
 SCF Done:  E(RB3LYP) =  -516.461101881     A.U. after    7 cycles
 Optimization completed.
    -- Stationary point found.
 Normal termination of Gaussian 16 at Wed Dec  9 16:47:03 2020.

 --------------------------------------------------------------------
 #N Geom=AllCheck Guess=TCheck SCRF=Check GenChk RB3LYP/6-31G(d) Freq
 --------------------------------------------------------------------

 Structure from the checkpoint file:  "JID_2110.chk"
 -------------------------------
 CID_144399178_JID_2110_neutraal
 -------------------------------
 Charge =  0 Multiplicity = 1

 SCF Done:  E(RB3LYP) =  -516.461101881     A.U. after    1 cycles

  Exact polarizability: 184.143  20.365 126.862   0.001  -0.002  50.394
 Approx polarizability: 377.089  81.342 204.296  -0.003  -0.006  76.332

                      1                      2                      3
                      A                      A                      A
 Frequencies --     61.7085               109.9687               121.2059
 Red. masses --      4.7815                 1.7475                 1.7050
 Frc consts  --      0.0107                 0.0125                 0.0148
 IR Inten    --      0.0431                 0.1625                 4.3014

                      4                      5                      6
                      A                      A                      A
 Frequencies --    140.8165               145.3488               186.5109
 Red. masses --      8.4760                 1.1300                 3.2984
 Frc consts  --      0.0990                 0.0141                 0.0676
 IR Inten    --      6.4064                 2.2577                 4.5829

                      7                      8                      9
                      A                      A                      A
 Frequencies --    203.8981               215.1588               307.7969
 Red. masses --      3.1815                 2.5357                 3.6070
 Frc consts  --      0.0779                 0.0692                 0.2013
 IR Inten    --      0.4453                 0.4080                 6.5261

                     10                     11                     12
                      A                      A                      A
 Frequencies --    335.9153               383.9442               404.9154
 Red. masses --      5.1348                 6.7689                 3.5426
 Frc consts  --      0.3414                 0.5879                 0.3422
 IR Inten    --      1.5400                 6.9546                 0.1463

                     13                     14                     15
                      A                      A                      A
 Frequencies --    417.2575               461.2171               519.2960
 Red. masses --      5.6162                 7.2099                 4.0859
 Frc consts  --      0.5761                 0.9036                 0.6492
 IR Inten    --      0.4207                 4.7665                 1.7525

                     16                     17                     18
                      A                      A                      A
 Frequencies --    531.6484               654.3663               674.5706
 Red. masses --      5.0429                 4.8327                 5.0514
 Frc consts  --      0.8398                 1.2192                 1.3543
 IR Inten    --      2.9157                 0.6955                 8.1166

                     19                     20                     21
                      A                      A                      A
 Frequencies --    676.9412               698.5263               756.3225
 Red. masses --      4.5761                 6.0339                 3.8572
 Frc consts  --      1.2355                 1.7347                 1.3000
 IR Inten    --      0.2246                13.2651                 2.8156

                     22                     23                     24
                      A                      A                      A
 Frequencies --    826.7331               878.9180               906.8818
 Red. masses --      2.7737                 1.3118                 1.2870
 Frc consts  --      1.1170                 0.5970                 0.6236
 IR Inten    --      7.5772                10.1249                 0.7959

                     25                     26                     27
                      A                      A                      A
 Frequencies --    925.8619               997.9713              1050.0034
 Red. masses --      1.5041                 1.7057                 1.9706
 Frc consts  --      0.7596                 1.0009                 1.2801
 IR Inten    --     29.1731                38.5459                 2.7584

                     28                     29                     30
                      A                      A                      A
 Frequencies --   1068.8237              1076.2682              1093.6211
 Red. masses --      1.5961                 1.5072                 3.5735
 Frc consts  --      1.0743                 1.0286                 2.5181
 IR Inten    --      0.0626                 2.7527                 3.1473

                     31                     32                     33
                      A                      A                      A
 Frequencies --   1138.1917              1177.3268              1253.2300
 Red. masses --      3.1436                 2.7452                 2.0585
 Frc consts  --      2.3994                 2.2419                 1.9048
 IR Inten    --      8.3152                20.2693                 8.0014

                     34                     35                     36
                      A                      A                      A
 Frequencies --   1278.1518              1390.6448              1397.8434
 Red. masses --      1.6480                 1.9766                 1.9022
 Frc consts  --      1.5863                 2.2522                 2.1899
 IR Inten    --      9.9786                15.6565                18.1333

                     37                     38                     39
                      A                      A                      A
 Frequencies --   1438.5609              1443.5595              1464.6944
 Red. masses --      1.2328                 1.3037                 2.6819
 Frc consts  --      1.5031                 1.6007                 3.3899
 IR Inten    --      0.1351                 3.0313                 6.4658

                     40                     41                     42
                      A                      A                      A
 Frequencies --   1498.0697              1501.4826              1507.8730
 Red. masses --      1.0443                 1.0445                 1.1242
 Frc consts  --      1.3809                 1.3875                 1.5060
 IR Inten    --      4.4641                 9.4701                47.2065

                     43                     44                     45
                      A                      A                      A
 Frequencies --   1513.4237              1634.5223              1659.7002
 Red. masses --      1.1014                 8.2063                 5.3028
 Frc consts  --      1.4864                12.9175                 8.6063
 IR Inten    --     11.3357                 4.5442               108.2428

                     46                     47                     48
                      A                      A                      A
 Frequencies --   1701.8044              1728.3876              2348.7890
 Red. masses --      6.3411                10.4146                12.6858
 Frc consts  --     10.8202                18.3306                41.2339
 IR Inten    --     70.4642               236.4531                 9.9386

                     49                     50                     51
                      A                      A                      A
 Frequencies --   3040.5561              3056.7104              3082.5371
 Red. masses --      1.0415                 1.0354                 1.0986
 Frc consts  --      5.6729                 5.7000                 6.1504
 IR Inten    --     10.3803                15.6891                 8.4541

                     52                     53                     54
                      A                      A                      A
 Frequencies --   3112.7403              3139.4926              3154.6067
 Red. masses --      1.0997                 1.1042                 1.0961
 Frc consts  --      6.2777                 6.4121                 6.4269
 IR Inten    --      9.1296                12.8882                 6.2388

                     55                     56                     57
                      A                      A                      A
 Frequencies --   3180.6469              3203.4277              3230.3550
 Red. masses --      1.0891                 1.0888                 1.0928
 Frc consts  --      6.4914                 6.5830                 6.7189
 IR Inten    --      3.4713                15.3003                 0.1666

 - Thermochemistry -
 -------------------
 Temperature   298.150 Kelvin.  Pressure   1.00000 Atm.
 Atom     1 has atomic number  6 and mass  12.00000

 Molecular mass:   159.06841 amu.
 Principal axes and moments of inertia in atomic units:
                           1         2         3
     Eigenvalues --  1390.575442375.792643744.23112
           X            0.99955   0.02989   0.00001
           Y           -0.02989   0.99955   0.00000
           Z           -0.00001  -0.00000   1.00000
 This molecule is an asymmetric top.
 Rotational symmetry number  1.
 Warning -- assumption of classical behavior for rotation
           may cause significant error
 Rotational temperatures (Kelvin)      0.06229     0.03646     0.02313
 Rotational constants (GHZ):           1.29784     0.75964     0.48201
 Zero-point vibrational energy     431312.1 (Joules/Mol)
                                  103.08606 (Kcal/Mol)
 Warning -- explicit consideration of  16 degrees of freedom as
           vibrations may cause significant error
 Vibrational temperatures:     88.78   158.22   174.39   202.60   209.12
          (Kelvin)            268.35   293.36   309.57   442.85   483.31
                              552.41   582.58   600.34   663.59   747.15
                              764.92   941.49   970.56   973.97  1005.02
                             1088.18  1189.48  1264.57  1304.80  1332.11
                             1435.86  1510.72  1537.80  1548.51  1573.48
                             1637.60  1693.91  1803.12  1838.98  2000.83
                             2011.18  2069.77  2076.96  2107.37  2155.39
                             2160.30  2169.49  2177.48  2351.71  2387.94
                             2448.52  2486.76  3379.38  4374.68  4397.92
                             4435.08  4478.54  4517.03  4538.78  4576.24
                             4609.02  4647.76

 Zero-point correction=                           0.164278 (Hartree/Particle)
 Thermal correction to Energy=                    0.175784
 Thermal correction to Enthalpy=                  0.176728
 Thermal correction to Gibbs Free Energy=         0.126868
 Sum of electronic and zero-point Energies=           -516.296824
 Sum of electronic and thermal Energies=              -516.285318
 Sum of electronic and thermal Enthalpies=            -516.284373
 Sum of electronic and thermal Free Energies=         -516.334234

                     E (Thermal)             CV                S
                      KCal/Mol        Cal/Mol-Kelvin    Cal/Mol-Kelvin
 Total                  110.306             42.184            104.940
 Electronic               0.000              0.000              0.000
 Translational            0.889              2.981             41.102
 Rotational               0.889              2.981             30.893
 Vibrational            108.529             36.222             32.946
 Vibration     1          0.597              1.973              4.402
 Vibration     2          0.606              1.941              3.269
 Vibration     3          0.609              1.932              3.081
 Vibration     4          0.615              1.912              2.793
 Vibration     5          0.617              1.908              2.732
 Vibration     6          0.632              1.858              2.262
 Vibration     7          0.640              1.834              2.098
 Vibration     8          0.645              1.818              1.999
 Vibration     9          0.698              1.659              1.374
 Vibration    10          0.717              1.604              1.231
 Vibration    11          0.753              1.504              1.024
 Vibration    12          0.770              1.460              0.945
 Vibration    13          0.780              1.433              0.901
 Vibration    14          0.819              1.336              0.763
 Vibration    15          0.874              1.207              0.612
 Vibration    16          0.887              1.180              0.584

 Optimization completed.
    -- Stationary point found.
 Normal termination of Gaussian 16 at Wed Dec  9 16:51:09 2020.

 ----------------------------------------------------------------------
 # B3LYP/6-311++G(d,p) empiricaldispersion=gd3bj scf=xqc pop=npa geom=c
 heck
 ----------------------------------------------------------------------

 ---------------------------------------
 CID_144399178_JID_2110_Energie_neutraal
 ---------------------------------------
 Structure from the checkpoint file:  "JID_2110.chk"
 Charge =  0 Multiplicity = 1

 SCF Done:  E(RB3LYP) =  -516.600315487     A.U. after   16 cycles
 Normal termination of Gaussian 16 at Wed Dec  9 16:52:38 2020.

 ----------------------------------------------------------------------
 # B3LYP/6-311++G(d,p) empiricaldispersion=gd3bj scf=xqc pop=npa geom=c
 heck
 ----------------------------------------------------------------------

 -------------------------------------
 CID_144399178_JID_2110_Energie_kation
 -------------------------------------
 Structure from the checkpoint file:  "JID_2110.chk"
 Charge =  1 Multiplicity = 2

 SCF Done:  E(UB3LYP) =  -516.274306671     A.U. after   31 cycles
 Normal termination of Gaussian 16 at Wed Dec  9 16:56:21 2020.
 Gaussian 16:  ES64L-G16RevA.03 25-Dec-2016

 ----------------------------------------------------------------------
 # B3LYP/6-311++G(d,p) empiricaldispersion=gd3bj scf=xqc pop=npa geom=c
 heck
 ----------------------------------------------------------------------

 ------------------------------------
 CID_144399178_JID_2110_Energie_anion
 ------------------------------------
 Structure from the checkpoint file:  "JID_2110.chk"
 Charge = -1 Multiplicity = 2

                         Standard orientation:
 ---------------------------------------------------------------------
 Center     Atomic      Atomic             Coordinates (Angstroms)
 Number     Number       Type             X           Y           Z
 ---------------------------------------------------------------------
      1          6           0        2.328688    2.576795    0.000201
      2          6           0        2.030025    1.115788    0.000069
      3          6           0        0.811266    0.512598   -0.000036
      4          6           0       -0.447900    1.237725   -0.000124
      5          6           0       -1.661499    0.637533   -0.000081
      6          6           0       -1.753503   -0.839718    0.000134
      7          8           0       -2.836444   -1.425382    0.000296
      8          6           0       -0.485311   -1.586304    0.000047
      9          6           0        0.715362   -0.955303   -0.000043
     10          6           0        1.920666   -1.732583   -0.000193
     11          7           0        2.906678   -2.349306   -0.000107
     12          6           0       -2.958167    1.389475   -0.000213
     13          1           0        1.441172    3.211750    0.000343
     14          1           0        2.936210    2.834326   -0.877807
     15          1           0        2.936331    2.834095    0.878192
     16          1           0        2.905611    0.469105    0.000062
     17          1           0       -0.402145    2.322233   -0.000269
     18          1           0       -0.558638   -2.668391    0.000072
     19          1           0       -3.559042    1.119049    0.875330
     20          1           0       -2.793720    2.470703   -0.000069
     21          1           0       -3.558739    1.119278   -0.876042
 ---------------------------------------------------------------------

 SCF Done:  E(UB3LYP) =  -516.658933105     A.U. after   23 cycles

 The electronic state is 2-A.
 Alpha  occ. eigenvalues --  -18.92172 -14.17314 -10.07586 -10.07440 -10.05932
 Alpha  occ. eigenvalues --  -10.05440 -10.04773 -10.04348 -10.03936 -10.03809
 Alpha  occ. eigenvalues --  -10.02855 -10.02843  -0.86239  -0.77407  -0.71801
 Alpha  occ. eigenvalues --   -0.65809  -0.64889  -0.58581  -0.56485  -0.50178
 Alpha  occ. eigenvalues --   -0.46947  -0.43484  -0.37446  -0.35544  -0.32927
 Alpha  occ. eigenvalues --   -0.30728  -0.30580  -0.29750  -0.29495  -0.27524
 Alpha  occ. eigenvalues --   -0.25901  -0.25748  -0.25037  -0.23848  -0.23257
 Alpha  occ. eigenvalues --   -0.22756  -0.20773  -0.19807  -0.19048  -0.12699
 Alpha  occ. eigenvalues --   -0.10148  -0.08960   0.00384
 Alpha virt. eigenvalues --    0.08028   0.09299   0.09967   0.11054   0.11702
 Alpha virt. eigenvalues --    0.12022   0.12797   0.13394   0.13902   0.15011
 Alpha virt. eigenvalues --    0.15443   0.15699   0.16991   0.17158   0.17361

  Beta  occ. eigenvalues --  -18.91621 -14.17202 -10.07460 -10.07452 -10.05700
  Beta  occ. eigenvalues --  -10.05484 -10.04936 -10.04346 -10.03984 -10.03629
  Beta  occ. eigenvalues --  -10.02721 -10.02189  -0.85304  -0.77225  -0.71415
  Beta  occ. eigenvalues --   -0.65508  -0.64322  -0.58396  -0.56164  -0.49431
  Beta  occ. eigenvalues --   -0.46666  -0.43036  -0.37122  -0.35272  -0.32758
  Beta  occ. eigenvalues --   -0.30584  -0.29990  -0.29524  -0.29274  -0.27374
  Beta  occ. eigenvalues --   -0.25480  -0.25062  -0.24733  -0.23662  -0.23016
  Beta  occ. eigenvalues --   -0.21364  -0.20594  -0.19711  -0.17835  -0.11735
  Beta  occ. eigenvalues --   -0.08462  -0.07509
  Beta virt. eigenvalues --    0.07136   0.08014   0.09282   0.11009   0.11042
  Beta virt. eigenvalues --    0.11777   0.12016   0.12796   0.13515   0.13887
  Beta virt. eigenvalues --    0.14986   0.15719   0.16157   0.17023   0.17161

 Mulliken charges and spin densities:
               1          2
     1  C   -0.736985  -0.031853
     2  C   -1.122125   0.457134
     3  C    1.647484  -0.106732
     4  C   -1.879876   0.113981
     5  C    1.496285  -0.036091
     6  C   -0.821247   0.102330
     7  O   -0.402590   0.195833
     8  C   -0.562343   0.110979
     9  C    2.579649   0.154665
    10  C   -1.659871  -0.024529
    11  N   -0.275138   0.061876
    12  C   -0.254810   0.016076
    13  H    0.143309   0.001585
    14  H    0.122113   0.020999
    15  H    0.122118   0.020989
    16  H    0.116878  -0.031489
    17  H   -0.082779  -0.014110
    18  H    0.140170  -0.008153
    19  H    0.154429  -0.001523
    20  H    0.120916  -0.000441
    21  H    0.154410  -0.001524
 Sum of Mulliken charges =  -1.00000   1.00000

 Dipole moment (field-independent basis, Debye):
    X=              0.2630    Y=              5.8377    Z=             -0.0005  Tot=              5.8436
 Quadrupole moment (field-independent basis, Debye-Ang):
   XX=           -114.9329   YY=            -92.4947   ZZ=            -77.1245
   XY=              1.6909   XZ=              0.0028   YZ=              0.0006

 Summary of Natural Population Analysis:

                                       Natural Population
                Natural  -----------------------------------------------
    Atom  No    Charge         Core      Valence    Rydberg      Total
 -----------------------------------------------------------------------
      C    1   -0.30714      0.99966     2.30315    0.00433     3.30714
      C    2    0.09336      0.99953     1.89994    0.00717     2.90664
      C    3   -0.09025      0.99947     2.08071    0.01007     3.09025
      C    4   -0.04934      0.99947     2.04197    0.00789     3.04934
      C    5   -0.05567      0.99948     2.04749    0.00869     3.05567
      C    6    0.23571      0.99956     1.74457    0.02015     2.76429
      O    7   -0.25630      0.99989     3.24956    0.00686     4.25630
      C    8   -0.06648      0.99949     2.05827    0.00872     3.06648
      C    9   -0.04368      0.99938     2.03378    0.01053     3.04368
      C   10    0.15769      0.99964     1.82352    0.01915     2.84231
      N   11   -0.19064      0.99979     2.67983    0.01102     3.69064
      C   12   -0.29258      0.99964     2.28677    0.00618     3.29258
      H   13    0.09537      0.00000     0.40376    0.00086     0.40463
      H   14    0.10285      0.00000     0.39613    0.00102     0.39715
      H   15    0.10285      0.00000     0.39613    0.00102     0.39715
      H   16    0.08541      0.00000     0.41305    0.00154     0.41459
      H   17    0.08560      0.00000     0.41272    0.00168     0.41440
      H   18    0.09778      0.00000     0.40053    0.00168     0.40222
      H   19    0.10288      0.00000     0.39578    0.00134     0.39712
      H   20    0.08970      0.00000     0.40935    0.00095     0.41030
      H   21    0.10287      0.00000     0.39579    0.00134     0.39713
 =======================================================================
   * Total *    0.00000     11.99501    29.87280    0.13219    42.00000

 Normal termination of Gaussian 16 at Wed Dec  9 16:59:08 2020.
