 Gaussian 16, Revision A.03,

 -----------------------------------------------------------
 # opt freq B3LYP/6-31G(d) empiricaldispersion=gd3bj scf=xqc
 -----------------------------------------------------------

 -------------------------------
 CID_136857895_JID_6601_neutraal
 -------------------------------
 Symbolic Z-matrix:
 Charge =  0 Multiplicity = 1

 SCF Done:  E(RB3LYP) =  -1054.69393199     A.U. after   14 cycles
 SCF Done:  E(RB3LYP) =  -1054.69874318     A.U. after   12 cycles
 SCF Done:  E(RB3LYP) =  -1054.69894348     A.U. after   12 cycles
 SCF Done:  E(RB3LYP) =  -1054.70004047     A.U. after   11 cycles
 SCF Done:  E(RB3LYP) =  -1054.70042520     A.U. after   11 cycles
 SCF Done:  E(RB3LYP) =  -1054.70056509     A.U. after   10 cycles
 SCF Done:  E(RB3LYP) =  -1054.70061721     A.U. after   10 cycles
 SCF Done:  E(RB3LYP) =  -1054.70065109     A.U. after    9 cycles
 SCF Done:  E(RB3LYP) =  -1054.70065712     A.U. after    9 cycles
 SCF Done:  E(RB3LYP) =  -1054.70065970     A.U. after    8 cycles
 SCF Done:  E(RB3LYP) =  -1054.70066097     A.U. after    9 cycles
 SCF Done:  E(RB3LYP) =  -1054.70066124     A.U. after    7 cycles
 SCF Done:  E(RB3LYP) =  -1054.70066145     A.U. after    7 cycles
 SCF Done:  E(RB3LYP) =  -1054.70066159     A.U. after    7 cycles
 SCF Done:  E(RB3LYP) =  -1054.70066163     A.U. after    7 cycles
 Optimization completed.
    -- Stationary point found.
 Normal termination of Gaussian 16 at Thu Dec 10 23:55:24 2020.

 --------------------------------------------------------------------
 #N Geom=AllCheck Guess=TCheck SCRF=Check GenChk RB3LYP/6-31G(d) Freq
 --------------------------------------------------------------------

 Structure from the checkpoint file:  "JID_6601.chk"
 -------------------------------
 CID_136857895_JID_6601_neutraal
 -------------------------------
 Charge =  0 Multiplicity = 1

 SCF Done:  E(RB3LYP) =  -1054.70066163     A.U. after    1 cycles

  Exact polarizability: 181.185 -12.818 162.808   8.317  -0.252 134.619
 Approx polarizability: 231.459 -19.044 239.258  18.798   1.532 206.224

                      1                      2                      3
                      A                      A                      A
 Frequencies --     16.1712                28.5870                40.6664
 Red. masses --      3.2426                 4.2262                 3.6214
 Frc consts  --      0.0005                 0.0020                 0.0035
 IR Inten    --      0.8650                 0.7814                 0.3365

                      4                      5                      6
                      A                      A                      A
 Frequencies --     56.2388                68.0516                97.6678
 Red. masses --      3.1947                 2.9247                 2.5581
 Frc consts  --      0.0060                 0.0080                 0.0144
 IR Inten    --      0.3888                 0.8385                 1.7997

                      7                      8                      9
                      A                      A                      A
 Frequencies --     99.5757               126.5484               134.7396
 Red. masses --      3.7222                 2.7059                 2.8300
 Frc consts  --      0.0217                 0.0255                 0.0303
 IR Inten    --      0.9912                 4.4814                 0.8139

                     10                     11                     12
                      A                      A                      A
 Frequencies --    142.2735               203.1809               223.5242
 Red. masses --      3.3219                 2.1803                 2.8310
 Frc consts  --      0.0396                 0.0530                 0.0833
 IR Inten    --      0.5442                 0.2723                 0.1687

                     13                     14                     15
                      A                      A                      A
 Frequencies --    237.4339               251.9668               270.2885
 Red. masses --      1.1968                 1.1640                 1.6709
 Frc consts  --      0.0398                 0.0435                 0.0719
 IR Inten    --      0.3003                 1.1831                 0.4679

                     16                     17                     18
                      A                      A                      A
 Frequencies --    287.6668               335.9282               345.8172
 Red. masses --      1.7109                 2.4133                 2.2910
 Frc consts  --      0.0834                 0.1605                 0.1614
 IR Inten    --      0.0592                 1.8497                 4.2017

                     19                     20                     21
                      A                      A                      A
 Frequencies --    350.9428               361.2115               373.3000
 Red. masses --      2.3065                 2.5932                 3.4446
 Frc consts  --      0.1674                 0.1993                 0.2828
 IR Inten    --      3.2625                 7.2273                 1.3958

                     22                     23                     24
                      A                      A                      A
 Frequencies --    411.5838               430.3478               446.1418
 Red. masses --      1.9613                 2.1719                 2.1297
 Frc consts  --      0.1958                 0.2370                 0.2498
 IR Inten    --      2.9046                11.2937                18.4556

                     25                     26                     27
                      A                      A                      A
 Frequencies --    484.9603               493.3271               505.2298
 Red. masses --      2.1188                 3.0067                 2.8470
 Frc consts  --      0.2936                 0.4311                 0.4282
 IR Inten    --      8.9428                33.2188                19.8635

                     28                     29                     30
                      A                      A                      A
 Frequencies --    525.1757               613.2262               666.3677
 Red. masses --      2.8863                 3.4889                 4.4071
 Frc consts  --      0.4690                 0.7730                 1.1530
 IR Inten    --      7.3825                 8.6215                53.1127

                     31                     32                     33
                      A                      A                      A
 Frequencies --    726.9459               743.9619               762.4765
 Red. masses --      3.4611                 1.8955                 4.1106
 Frc consts  --      1.0776                 0.6181                 1.4080
 IR Inten    --     19.3586                 1.8637                 6.3076

                     34                     35                     36
                      A                      A                      A
 Frequencies --    802.3735               808.0151               818.3168
 Red. masses --      1.2874                 2.6019                 2.9646
 Frc consts  --      0.4883                 1.0009                 1.1696
 IR Inten    --      3.8238                 3.5073                 0.2992

                     37                     38                     39
                      A                      A                      A
 Frequencies --    851.5069               909.9694               919.0262
 Red. masses --      2.3399                 1.8103                 1.8179
 Frc consts  --      0.9996                 0.8832                 0.9047
 IR Inten    --      5.8145                 0.6514                 2.5774

                     40                     41                     42
                      A                      A                      A
 Frequencies --    931.8529               941.7825               977.9409
 Red. masses --      1.7560                 2.3728                 2.0162
 Frc consts  --      0.8984                 1.2400                 1.1361
 IR Inten    --      5.3720                18.0077                 9.8229

                     43                     44                     45
                      A                      A                      A
 Frequencies --    991.6784              1016.3451              1018.9938
 Red. masses --      1.7535                 1.6630                 1.9379
 Frc consts  --      1.0160                 1.0121                 1.1856
 IR Inten    --      5.1292                16.1098                 3.8213

                     46                     47                     48
                      A                      A                      A
 Frequencies --   1031.2399              1039.2180              1084.3326
 Red. masses --      1.8898                 2.0618                 1.9951
 Frc consts  --      1.1841                 1.3119                 1.3821
 IR Inten    --      1.1960                 1.4993                 5.0107

                     49                     50                     51
                      A                      A                      A
 Frequencies --   1087.5109              1114.3867              1126.1572
 Red. masses --      2.4050                 2.3399                 2.2973
 Frc consts  --      1.6758                 1.7121                 1.7166
 IR Inten    --      2.5997                11.1914                22.9506

                     52                     53                     54
                      A                      A                      A
 Frequencies --   1136.5927              1165.7046              1190.4460
 Red. masses --      1.3648                 2.3399                 1.3047
 Frc consts  --      1.0388                 1.8734                 1.0893
 IR Inten    --     12.0830                62.0269                 2.4307

                     55                     56                     57
                      A                      A                      A
 Frequencies --   1192.5452              1204.6449              1217.4449
 Red. masses --      2.3428                 2.8182                 1.3115
 Frc consts  --      1.9631                 2.4096                 1.1453
 IR Inten    --     36.4125                87.0239                16.2850

                     58                     59                     60
                      A                      A                      A
 Frequencies --   1231.6255              1240.9860              1245.7491
 Red. masses --      1.3470                 1.6358                 1.6515
 Frc consts  --      1.2038                 1.4843                 1.5100
 IR Inten    --     29.7936                25.9258                12.1347

                     61                     62                     63
                      A                      A                      A
 Frequencies --   1279.5039              1283.5434              1310.8437
 Red. masses --      1.4962                 1.8298                 1.5234
 Frc consts  --      1.4432                 1.7761                 1.5422
 IR Inten    --     14.9258                18.6418                11.8270

                     64                     65                     66
                      A                      A                      A
 Frequencies --   1327.2888              1331.9580              1362.4525
 Red. masses --      1.2207                 1.2855                 1.1425
 Frc consts  --      1.2670                 1.3437                 1.2495
 IR Inten    --      2.4177                 1.1260                 7.7389

                     67                     68                     69
                      A                      A                      A
 Frequencies --   1374.1463              1387.2960              1388.6781
 Red. masses --      1.3183                 1.4825                 1.4013
 Frc consts  --      1.4666                 1.6810                 1.5922
 IR Inten    --     18.7437                 9.6337                 9.4306

                     70                     71                     72
                      A                      A                      A
 Frequencies --   1408.5891              1410.5800              1433.3219
 Red. masses --      1.3975                 1.4403                 1.2567
 Frc consts  --      1.6337                 1.6885                 1.5211
 IR Inten    --      6.7448                 6.5318                20.0921

                     73                     74                     75
                      A                      A                      A
 Frequencies --   1436.0780              1441.5644              1447.8981
 Red. masses --      1.3499                 1.3535                 1.2668
 Frc consts  --      1.6403                 1.6572                 1.5647
 IR Inten    --     20.5616                15.3729                13.2571

                     76                     77                     78
                      A                      A                      A
 Frequencies --   1499.9792              1501.0770              1507.4276
 Red. masses --      1.1159                 1.0828                 1.0733
 Frc consts  --      1.4792                 1.4375                 1.4370
 IR Inten    --      2.2202                 0.6791                 4.4675

                     79                     80                     81
                      A                      A                      A
 Frequencies --   1509.0552              1516.4130              1517.7464
 Red. masses --      1.0917                 1.0670                 1.0744
 Frc consts  --      1.4647                 1.4456                 1.4582
 IR Inten    --      4.4858                 5.2374                 3.7445

                     82                     83                     84
                      A                      A                      A
 Frequencies --   1524.3116              1525.6498              1529.1135
 Red. masses --      1.0836                 1.0618                 1.1022
 Frc consts  --      1.4834                 1.4561                 1.5185
 IR Inten    --      4.2246                 1.7408                 4.0133

                     85                     86                     87
                      A                      A                      A
 Frequencies --   1531.1951              1538.4845              1541.5599
 Red. masses --      1.0558                 1.0723                 1.0502
 Frc consts  --      1.4584                 1.4954                 1.4705
 IR Inten    --      1.9117                 4.9071                 2.3368

                     88                     89                     90
                      A                      A                      A
 Frequencies --   1542.8968              1551.4532              1745.3928
 Red. masses --      1.0537                 1.0955                 9.1150
 Frc consts  --      1.4779                 1.5536                16.3604
 IR Inten    --     13.0552                44.7634               569.3446

                     91                     92                     93
                      A                      A                      A
 Frequencies --   2948.7299              2980.3893              2992.7535
 Red. masses --      1.0721                 1.0675                 1.0437
 Frc consts  --      5.4924                 5.5867                 5.5079
 IR Inten    --     62.2076                37.8154                53.2864

                     94                     95                     96
                      A                      A                      A
 Frequencies --   3034.3367              3036.0928              3044.2049
 Red. masses --      1.0652                 1.0656                 1.0768
 Frc consts  --      5.7782                 5.7873                 5.8796
 IR Inten    --     28.2147                29.7212                23.6531

                     97                     98                     99
                      A                      A                      A
 Frequencies --   3045.0408              3053.9629              3057.1486
 Red. masses --      1.0850                 1.0368                 1.0367
 Frc consts  --      5.9272                 5.6975                 5.7089
 IR Inten    --     59.5058                14.7113                25.1450

                    100                    101                    102
                      A                      A                      A
 Frequencies --   3063.8175              3065.4522              3080.9059
 Red. masses --      1.0680                 1.0864                 1.0931
 Frc consts  --      5.9067                 6.0148                 6.1131
 IR Inten    --      6.3965                75.3085                11.2306

                    103                    104                    105
                      A                      A                      A
 Frequencies --   3082.0538              3085.5782              3090.9238
 Red. masses --      1.0961                 1.0670                 1.0952
 Frc consts  --      6.1346                 5.9853                 6.1649
 IR Inten    --     36.2964                25.0644                32.5164

                    106                    107                    108
                      A                      A                      A
 Frequencies --   3096.0459              3103.4836              3120.6504
 Red. masses --      1.0924                 1.1017                 1.1014
 Frc consts  --      6.1694                 6.2518                 6.3193
 IR Inten    --     51.0348                67.5581                35.4442

                    109                    110                    111
                      A                      A                      A
 Frequencies --   3121.6505              3125.8804              3128.7813
 Red. masses --      1.1017                 1.0975                 1.1014
 Frc consts  --      6.3253                 6.3180                 6.3523
 IR Inten    --     24.6753                41.7277                32.4059

                    112                    113                    114
                      A                      A                      A
 Frequencies --   3139.6532              3151.3118              3580.8940
 Red. masses --      1.1026                 1.1045                 1.0746
 Frc consts  --      6.4035                 6.4623                 8.1183
 IR Inten    --     18.6291                11.3075                 4.9472

 - Thermochemistry -
 -------------------
 Temperature   298.150 Kelvin.  Pressure   1.00000 Atm.
 Atom     1 has atomic number  6 and mass  12.00000

 Molecular mass:   244.16094 amu.
 Principal axes and moments of inertia in atomic units:
                           1         2         3
     Eigenvalues --  2821.019427642.509649251.30121
           X            0.99939  -0.03342  -0.00977
           Y            0.03323   0.99927  -0.01872
           Z            0.01039   0.01838   0.99978
 This molecule is an asymmetric top.
 Rotational symmetry number  1.
 Warning -- assumption of classical behavior for rotation
           may cause significant error
 Rotational temperatures (Kelvin)      0.03070     0.01133     0.00936
 Rotational constants (GHZ):           0.63975     0.23615     0.19508
 Zero-point vibrational energy     939625.7 (Joules/Mol)
                                  224.57593 (Kcal/Mol)
 Warning -- explicit consideration of  29 degrees of freedom as
           vibrations may cause significant error
 Vibrational temperatures:     23.27    41.13    58.51    80.92    97.91
          (Kelvin)            140.52   143.27   182.07   193.86   204.70
                              292.33   321.60   341.61   362.52   388.88
                              413.89   483.33   497.55   504.93   519.70
                              537.10   592.18   619.17   641.90   697.75
                              709.79   726.91   755.61   882.30   958.75
                             1045.91  1070.40  1097.03  1154.44  1162.55
                             1177.38  1225.13  1309.24  1322.27  1340.73
                             1355.01  1407.04  1426.80  1462.29  1466.10
                             1483.72  1495.20  1560.11  1564.69  1603.35
                             1620.29  1635.30  1677.19  1712.79  1715.81
                             1733.22  1751.63  1772.03  1785.50  1792.36
                             1840.92  1846.73  1886.01  1909.67  1916.39
                             1960.27  1977.09  1996.01  1998.00  2026.65
                             2029.51  2062.23  2066.20  2074.09  2083.20
                             2158.14  2159.72  2168.85  2171.19  2181.78
                             2183.70  2193.14  2195.07  2200.05  2203.05
                             2213.54  2217.96  2219.88  2232.20  2511.23
                             4242.56  4288.12  4305.90  4365.73  4368.26
                             4379.93  4381.13  4393.97  4398.55  4408.15
                             4410.50  4432.74  4434.39  4439.46  4447.15
                             4454.52  4465.22  4489.92  4491.36  4497.44
                             4501.62  4517.26  4534.03  5152.11

 Zero-point correction=                           0.357885 (Hartree/Particle)
 Thermal correction to Energy=                    0.376663
 Thermal correction to Enthalpy=                  0.377607
 Thermal correction to Gibbs Free Energy=         0.308854
 Sum of electronic and zero-point Energies=          -1054.342777
 Sum of electronic and thermal Energies=             -1054.323999
 Sum of electronic and thermal Enthalpies=           -1054.323055
 Sum of electronic and thermal Free Energies=        -1054.391807

                     E (Thermal)             CV                S
                      KCal/Mol        Cal/Mol-Kelvin    Cal/Mol-Kelvin
 Total                  236.360             69.529            144.703
 Electronic               0.000              0.000              0.000
 Translational            0.889              2.981             42.379
 Rotational               0.889              2.981             33.655
 Vibrational            234.582             63.567             68.669
 Vibration     1          0.593              1.986              7.056
 Vibration     2          0.593              1.984              5.925
 Vibration     3          0.594              1.981              5.226
 Vibration     4          0.596              1.975              4.585
 Vibration     5          0.598              1.969              4.209
 Vibration     6          0.603              1.951              3.500
 Vibration     7          0.604              1.949              3.463
 Vibration     8          0.611              1.927              2.998
 Vibration     9          0.613              1.919              2.877
 Vibration    10          0.616              1.911              2.773
 Vibration    11          0.639              1.835              2.104
 Vibration    12          0.649              1.805              1.930
 Vibration    13          0.656              1.783              1.822
 Vibration    14          0.664              1.759              1.717
 Vibration    15          0.674              1.728              1.594
 Vibration    16          0.685              1.697              1.488
 Vibration    17          0.717              1.604              1.231
 Vibration    18          0.724              1.584              1.185
 Vibration    19          0.728              1.573              1.162
 Vibration    20          0.735              1.552              1.117
 Vibration    21          0.745              1.527              1.066
 Vibration    22          0.776              1.445              0.921
 Vibration    23          0.792              1.404              0.858
 Vibration    24          0.805              1.369              0.808
 Vibration    25          0.841              1.283              0.697
 Vibration    26          0.849              1.265              0.675
 Vibration    27          0.860              1.238              0.645
 Vibration    28          0.880              1.194              0.598
 Vibration    29          0.973              1.004              0.427

 Optimization completed.
    -- Stationary point found.
 Normal termination of Gaussian 16 at Fri Dec 11 00:09:24 2020.

 ----------------------------------------------------------------------
 # B3LYP/6-311++G(d,p) empiricaldispersion=gd3bj scf=xqc pop=npa geom=c
 heck
 ----------------------------------------------------------------------

 ---------------------------------------
 CID_136857895_JID_6601_Energie_neutraal
 ---------------------------------------
 Structure from the checkpoint file:  "JID_6601.chk"
 Charge =  0 Multiplicity = 1

 SCF Done:  E(RB3LYP) =  -1054.91560775     A.U. after   15 cycles
 Normal termination of Gaussian 16 at Fri Dec 11 00:16:46 2020.

 ----------------------------------------------------------------------
 # B3LYP/6-311++G(d,p) empiricaldispersion=gd3bj scf=xqc pop=npa geom=c
 heck
 ----------------------------------------------------------------------

 -------------------------------------
 CID_136857895_JID_6601_Energie_kation
 -------------------------------------
 Structure from the checkpoint file:  "JID_6601.chk"
 Charge =  1 Multiplicity = 2

 SCF Done:  E(UB3LYP) =  -1054.62483925     A.U. after   29 cycles
 Normal termination of Gaussian 16 at Fri Dec 11 00:35:46 2020.
 Gaussian 16:  ES64L-G16RevA.03 25-Dec-2016

 ----------------------------------------------------------------------
 # B3LYP/6-311++G(d,p) empiricaldispersion=gd3bj scf=xqc pop=npa geom=c
 heck
 ----------------------------------------------------------------------

 ------------------------------------
 CID_136857895_JID_6601_Energie_anion
 ------------------------------------
 Structure from the checkpoint file:  "JID_6601.chk"
 Charge = -1 Multiplicity = 2

                         Standard orientation:
 ---------------------------------------------------------------------
 Center     Atomic      Atomic             Coordinates (Angstroms)
 Number     Number       Type             X           Y           Z
 ---------------------------------------------------------------------
      1          6           0       -3.227843    3.121248   -0.158348
      2          6           0       -2.031788    2.208148    0.122193
      3          6           0       -2.370622    0.712015    0.259187
      4          6           0       -2.978429    0.154122   -1.045911
      5         16           0       -2.544411   -1.627419   -1.094480
      6          6           0       -1.137661   -1.366292   -0.007067
      7          7           0       -0.349762   -2.326123    0.256479
      8          6           0        0.792703   -2.125911    1.131532
      9          6           0        2.091779   -1.976694    0.321377
     10          6           0        2.160044   -0.710306   -0.546210
     11          6           0        2.354346    0.593049    0.248304
     12          6           0        3.761732    0.819368    0.830932
     13          8           0        4.614175    1.618817    0.024667
     14          6           0        5.044528    1.006342   -1.171113
     15          7           0       -1.108218   -0.032145    0.387708
     16          6           0       -3.287047    0.437409    1.462655
     17          1           0       -3.746743    2.833792   -1.079749
     18          1           0       -2.894562    4.157037   -0.279096
     19          1           0       -3.957656    3.103651    0.657542
     20          1           0       -1.290254    2.304732   -0.679467
     21          1           0       -1.534022    2.534738    1.046017
     22          1           0       -4.063662    0.267106   -1.068413
     23          1           0       -2.548483    0.657680   -1.916595
     24          1           0        0.682806   -1.270978    1.823629
     25          1           0        0.882372   -3.015056    1.767082
     26          1           0        2.942487   -2.009010    1.016205
     27          1           0        2.177775   -2.858162   -0.324394
     28          1           0        2.976474   -0.825301   -1.267879
     29          1           0        1.239759   -0.639765   -1.136677
     30          1           0        2.114164    1.461480   -0.377468
     31          1           0        1.633982    0.617417    1.075949
     32          1           0        3.691555    1.368403    1.775250
     33          1           0        4.250192   -0.146658    1.046599
     34          1           0        5.456199    0.000297   -0.987439
     35          1           0        4.239198    0.919375   -1.915093
     36          1           0        5.832862    1.640226   -1.587094
     37          1           0       -0.569471    0.158649    1.224369
     38          1           0       -2.805604    0.769444    2.389948
     39          1           0       -4.241456    0.965272    1.370261
     40          1           0       -3.495310   -0.633315    1.546363
 ---------------------------------------------------------------------

 SCF Done:  E(UB3LYP) =  -1054.90765077     A.U. after   31 cycles

 The electronic state is 2-A.
 Alpha  occ. eigenvalues --  -88.75302 -19.04178 -14.23490 -14.18654 -10.16592
 Alpha  occ. eigenvalues --  -10.13416 -10.13217 -10.12749 -10.10692 -10.10130
 Alpha  occ. eigenvalues --  -10.07762 -10.07471 -10.07444 -10.07287 -10.06443
 Alpha  occ. eigenvalues --  -10.06403  -7.83953  -5.80318  -5.79983  -5.79347
 Alpha  occ. eigenvalues --   -0.95322  -0.87783  -0.80206  -0.71374  -0.70618
 Alpha  occ. eigenvalues --   -0.68724  -0.65928  -0.63326  -0.61822  -0.58454
 Alpha  occ. eigenvalues --   -0.56296  -0.53964  -0.52274  -0.48309  -0.47781
 Alpha  occ. eigenvalues --   -0.46538  -0.41566  -0.40665  -0.40316  -0.38480
 Alpha  occ. eigenvalues --   -0.37881  -0.37157  -0.36252  -0.35563  -0.34454
 Alpha  occ. eigenvalues --   -0.32586  -0.32209  -0.31792  -0.30974  -0.30732
 Alpha  occ. eigenvalues --   -0.29568  -0.28717  -0.27775  -0.27469  -0.27259
 Alpha  occ. eigenvalues --   -0.26600  -0.26263  -0.25902  -0.24093  -0.23586
 Alpha  occ. eigenvalues --   -0.23290  -0.22606  -0.22219  -0.17594  -0.15789
 Alpha  occ. eigenvalues --   -0.14928  -0.12993   0.03977
 Alpha virt. eigenvalues --    0.05835   0.06475   0.07503   0.07894   0.08151
 Alpha virt. eigenvalues --    0.08322   0.09163   0.09703   0.10140   0.10177
 Alpha virt. eigenvalues --    0.10590   0.10732   0.11427   0.11844   0.11984

  Beta  occ. eigenvalues --  -88.75295 -19.04176 -14.23467 -14.18653 -10.16588
  Beta  occ. eigenvalues --  -10.13407 -10.13217 -10.12738 -10.10645 -10.10112
  Beta  occ. eigenvalues --  -10.07759 -10.07466 -10.07426 -10.07256 -10.06402
  Beta  occ. eigenvalues --  -10.06361  -7.83947  -5.80297  -5.79979  -5.79343
  Beta  occ. eigenvalues --   -0.95316  -0.87751  -0.80194  -0.71352  -0.70566
  Beta  occ. eigenvalues --   -0.68680  -0.65902  -0.63281  -0.61788  -0.58403
  Beta  occ. eigenvalues --   -0.56254  -0.53881  -0.52235  -0.48248  -0.47730
  Beta  occ. eigenvalues --   -0.46488  -0.41535  -0.40640  -0.40293  -0.38432
  Beta  occ. eigenvalues --   -0.37860  -0.37113  -0.36237  -0.35520  -0.34435
  Beta  occ. eigenvalues --   -0.32558  -0.32173  -0.31767  -0.30928  -0.30694
  Beta  occ. eigenvalues --   -0.29529  -0.28690  -0.27741  -0.27424  -0.27212
  Beta  occ. eigenvalues --   -0.26568  -0.26193  -0.25874  -0.24060  -0.23568
  Beta  occ. eigenvalues --   -0.23266  -0.22589  -0.22164  -0.17580  -0.15771
  Beta  occ. eigenvalues --   -0.14897  -0.12976
  Beta virt. eigenvalues --    0.05776   0.06558   0.07126   0.07782   0.08351
  Beta virt. eigenvalues --    0.08450   0.08779   0.09302   0.09885   0.10396
  Beta virt. eigenvalues --    0.10428   0.10843   0.10923   0.11579   0.11985

 Mulliken charges and spin densities:
               1          2
     1  C    1.298377  -2.023346
     2  C   -0.960382   0.994205
     3  C   -1.649302   1.434195
     4  C    0.602511  -1.248692
     5  S   -0.039775  -0.166505
     6  C   -0.531002   0.177650
     7  N    0.048042   0.034154
     8  C    0.276950  -0.531799
     9  C   -0.738469   0.215991
    10  C    0.351023  -0.032135
    11  C   -0.323000   0.026126
    12  C   -0.096973  -0.436996
    13  O   -0.143970   0.027625
    14  C   -0.114495  -0.219961
    15  N    0.563157  -0.073292
    16  C    1.495603  -2.021253
    17  H   -0.282893   0.425341
    18  H   -0.414593   0.570676
    19  H   -0.192712   0.342196
    20  H    0.147263   0.018412
    21  H   -0.452487   0.617628
    22  H   -0.195072   0.419796
    23  H   -0.041379   0.278888
    24  H   -0.315272   0.384255
    25  H    0.107457   0.080140
    26  H    0.041603   0.046748
    27  H    0.165715  -0.000967
    28  H    0.078382   0.060626
    29  H    0.202462  -0.006702
    30  H    0.094682   0.120921
    31  H    0.027009  -0.003917
    32  H   -0.248758   0.456972
    33  H    0.167414  -0.042603
    34  H    0.046290   0.061532
    35  H    0.057255   0.084337
    36  H    0.087302   0.060864
    37  H    0.347805  -0.063084
    38  H   -0.564951   0.732077
    39  H   -0.008447   0.151458
    40  H    0.107631   0.048439
 Sum of Mulliken charges =  -1.00000   1.00000

 Dipole moment (field-independent basis, Debye):
    X=              5.0804    Y=             -4.8810    Z=             -3.0825  Tot=              7.6900
 Quadrupole moment (field-independent basis, Debye-Ang):
   XX=           -178.6429   YY=           -168.9370   ZZ=           -150.0300
   XY=              2.6076   XZ=             -3.5113   YZ=             -7.4529

 Summary of Natural Population Analysis:

                                       Natural Population
                Natural  -----------------------------------------------
    Atom  No    Charge         Core      Valence    Rydberg      Total
 -----------------------------------------------------------------------
      C    1   -0.28677      0.99966     2.28205    0.00506     3.28677
      C    2   -0.19083      0.99958     2.17966    0.01159     3.19083
      C    3    0.05869      0.99956     1.92615    0.01561     2.94131
      C    4   -0.24503      0.99953     2.23410    0.01140     3.24503
      S    5    0.11612      4.99955     2.86633    0.01799     7.88388
      C    6    0.16811      0.99954     1.80961    0.02274     2.83189
      N    7   -0.29065      0.99961     2.77979    0.01126     3.79065
      C    8   -0.09652      0.99960     2.08350    0.01342     3.09652
      C    9   -0.19114      0.99962     2.18344    0.00809     3.19114
      C   10   -0.19650      0.99962     2.18848    0.00841     3.19650
      C   11   -0.21175      0.99962     2.20270    0.00943     3.21175
      C   12   -0.00910      0.99958     1.99557    0.01395     3.00910
      O   13   -0.29731      0.99989     3.28790    0.00952     4.29731
      C   14   -0.09860      0.99962     2.09063    0.00835     3.09860
      N   15   -0.34517      0.99963     2.83306    0.01248     3.84517
      C   16   -0.29531      0.99961     2.28849    0.00720     3.29531
      H   17    0.09651      0.00000     0.40219    0.00130     0.40349
      H   18    0.10324      0.00000     0.39572    0.00105     0.39676
      H   19    0.09909      0.00000     0.39953    0.00138     0.40091
      H   20    0.10105      0.00000     0.39720    0.00175     0.39895
      H   21    0.10341      0.00000     0.39419    0.00241     0.39659
      H   22    0.11133      0.00000     0.38736    0.00131     0.38867
      H   23    0.10531      0.00000     0.39316    0.00153     0.39469
      H   24    0.07912      0.00000     0.41894    0.00194     0.42088
      H   25    0.09409      0.00000     0.40476    0.00115     0.40591
      H   26    0.09226      0.00000     0.40658    0.00116     0.40774
      H   27    0.09888      0.00000     0.40009    0.00103     0.40112
      H   28    0.09288      0.00000     0.40595    0.00117     0.40712
      H   29    0.10609      0.00000     0.39253    0.00137     0.39391
      H   30    0.10519      0.00000     0.39353    0.00128     0.39481
      H   31    0.10103      0.00000     0.39695    0.00202     0.39897
      H   32    0.09339      0.00000     0.40516    0.00145     0.40661
      H   33    0.07314      0.00000     0.42563    0.00123     0.42686
      H   34    0.07531      0.00000     0.42332    0.00137     0.42469
      H   35    0.07942      0.00000     0.41923    0.00135     0.42058
      H   36    0.08746      0.00000     0.41160    0.00094     0.41254
      H   37    0.19901      0.00000     0.29648    0.00451     0.30099
      H   38    0.10605      0.00000     0.39210    0.00185     0.39395
      H   39    0.10318      0.00000     0.39569    0.00113     0.39682
      H   40    0.10534      0.00000     0.39343    0.00123     0.39466
 =======================================================================
   * Total *    0.00000     19.99381    46.78278    0.22341    67.00000

 Normal termination of Gaussian 16 at Fri Dec 11 00:57:41 2020.
