 Gaussian 16, Revision A.03,

 -----------------------------------------------------------
 # opt freq B3LYP/6-31G(d) empiricaldispersion=gd3bj scf=xqc
 -----------------------------------------------------------

 -------------------------------
 CID_154212079_JID_3829_neutraal
 -------------------------------
 Symbolic Z-matrix:
 Charge =  0 Multiplicity = 1

 SCF Done:  E(RB3LYP) =  -577.875216817     A.U. after   15 cycles
 SCF Done:  E(RB3LYP) =  -577.877890506     A.U. after   12 cycles
 SCF Done:  E(RB3LYP) =  -577.878368729     A.U. after   12 cycles
 SCF Done:  E(RB3LYP) =  -577.878805616     A.U. after   11 cycles
 SCF Done:  E(RB3LYP) =  -577.878970413     A.U. after   11 cycles
 SCF Done:  E(RB3LYP) =  -577.879047858     A.U. after   12 cycles
 SCF Done:  E(RB3LYP) =  -577.879099771     A.U. after   10 cycles
 SCF Done:  E(RB3LYP) =  -577.879144584     A.U. after   10 cycles
 SCF Done:  E(RB3LYP) =  -577.879152889     A.U. after   10 cycles
 SCF Done:  E(RB3LYP) =  -577.879157428     A.U. after    9 cycles
 SCF Done:  E(RB3LYP) =  -577.879158481     A.U. after    8 cycles
 SCF Done:  E(RB3LYP) =  -577.879158740     A.U. after    8 cycles
 SCF Done:  E(RB3LYP) =  -577.879158914     A.U. after    8 cycles
 Optimization completed.
    -- Stationary point found.
 Normal termination of Gaussian 16 at Mon Dec 14 13:10:37 2020.

 --------------------------------------------------------------------
 #N Geom=AllCheck Guess=TCheck SCRF=Check GenChk RB3LYP/6-31G(d) Freq
 --------------------------------------------------------------------

 Structure from the checkpoint file:  "JID_3829.chk"
 -------------------------------
 CID_154212079_JID_3829_neutraal
 -------------------------------
 Charge =  0 Multiplicity = 1

 SCF Done:  E(RB3LYP) =  -577.879158914     A.U. after    1 cycles

  Exact polarizability: 167.197  -0.743 110.263  -0.041   3.389  95.481
 Approx polarizability: 217.352  -7.492 161.705  -4.123   5.463 138.805

                      1                      2                      3
                      A                      A                      A
 Frequencies --     22.1362                28.0895                41.3525
 Red. masses --      4.0309                 4.7979                 3.2299
 Frc consts  --      0.0012                 0.0022                 0.0033
 IR Inten    --      0.8712                 5.5336                 0.4034

                      4                      5                      6
                      A                      A                      A
 Frequencies --     68.1813                96.1062               141.1647
 Red. masses --      3.6323                 3.9373                 3.2950
 Frc consts  --      0.0099                 0.0214                 0.0387
 IR Inten    --      2.8514                 0.0862                 8.5395

                      7                      8                      9
                      A                      A                      A
 Frequencies --    166.0104               205.5398               232.5401
 Red. masses --      3.6231                 2.5764                 1.5319
 Frc consts  --      0.0588                 0.0641                 0.0488
 IR Inten    --      0.8215                 0.8108                 0.7844

                     10                     11                     12
                      A                      A                      A
 Frequencies --    238.7598               283.3369               294.4702
 Red. masses --      1.5189                 1.1796                 1.0994
 Frc consts  --      0.0510                 0.0558                 0.0562
 IR Inten    --      0.3270                 0.0304                 0.4010

                     13                     14                     15
                      A                      A                      A
 Frequencies --    318.3728               340.7576               360.3302
 Red. masses --      1.8824                 2.2615                 2.2304
 Frc consts  --      0.1124                 0.1547                 0.1706
 IR Inten    --      0.4987                 0.2905                 2.5958

                     16                     17                     18
                      A                      A                      A
 Frequencies --    375.6283               385.6890               417.1424
 Red. masses --      2.7018                 2.1241                 2.2064
 Frc consts  --      0.2246                 0.1862                 0.2262
 IR Inten    --      1.1846                 0.0460                 0.5176

                     19                     20                     21
                      A                      A                      A
 Frequencies --    432.1284               442.2941               459.7008
 Red. masses --      1.3322                 1.8296                 2.0302
 Frc consts  --      0.1466                 0.2109                 0.2528
 IR Inten    --    111.8772                51.8093                 1.9427

                     22                     23                     24
                      A                      A                      A
 Frequencies --    530.6586               546.0380               583.7053
 Red. masses --      2.1471                 1.6094                 2.3331
 Frc consts  --      0.3562                 0.2827                 0.4683
 IR Inten    --     11.0183                39.2625                28.1980

                     25                     26                     27
                      A                      A                      A
 Frequencies --    587.7177               658.3471               708.9290
 Red. masses --      2.4719                 2.0088                 2.3829
 Frc consts  --      0.5031                 0.5130                 0.7056
 IR Inten    --     13.9716                83.3423                31.7656

                     28                     29                     30
                      A                      A                      A
 Frequencies --    722.1031               783.5743               848.3719
 Red. masses --      2.2184                 1.9169                 3.0832
 Frc consts  --      0.6815                 0.6934                 1.3075
 IR Inten    --     13.6095                11.7314                13.1393

                     31                     32                     33
                      A                      A                      A
 Frequencies --    880.9664               890.1439               916.6664
 Red. masses --      2.1952                 2.0590                 1.7562
 Frc consts  --      1.0038                 0.9612                 0.8694
 IR Inten    --      9.0883                 3.4365                 0.2802

                     34                     35                     36
                      A                      A                      A
 Frequencies --    923.2273               943.0750               970.1250
 Red. masses --      2.6707                 1.7328                 1.2097
 Frc consts  --      1.3412                 0.9080                 0.6708
 IR Inten    --      3.0034                 0.5922                 0.0505

                     37                     38                     39
                      A                      A                      A
 Frequencies --    991.5530              1000.2970              1026.5793
 Red. masses --      1.7079                 1.8786                 1.0940
 Frc consts  --      0.9893                 1.1075                 0.6793
 IR Inten    --      1.5622                 7.5948                21.8625

                     40                     41                     42
                      A                      A                      A
 Frequencies --   1055.5284              1061.1056              1097.8778
 Red. masses --      1.4641                 1.3973                 2.4955
 Frc consts  --      0.9611                 0.9269                 1.7722
 IR Inten    --      8.0211                 2.4780                 2.3810

                     43                     44                     45
                      A                      A                      A
 Frequencies --   1105.7874              1121.3982              1158.3518
 Red. masses --      1.7533                 2.0622                 2.4673
 Frc consts  --      1.2632                 1.5279                 1.9505
 IR Inten    --      4.0993                 8.3731                25.6000

                     46                     47                     48
                      A                      A                      A
 Frequencies --   1211.1509              1219.8556              1249.1881
 Red. masses --      1.3976                 1.3552                 2.3786
 Frc consts  --      1.2079                 1.1882                 2.1869
 IR Inten    --      5.7470                 2.7028                27.0752

                     49                     50                     51
                      A                      A                      A
 Frequencies --   1269.7698              1288.2504              1325.0744
 Red. masses --      2.6355                 1.6701                 1.5098
 Frc consts  --      2.5036                 1.6330                 1.5619
 IR Inten    --     68.0952                16.2182                 4.0983

                     52                     53                     54
                      A                      A                      A
 Frequencies --   1342.1355              1348.1517              1373.7929
 Red. masses --      1.2249                 1.3051                 1.7848
 Frc consts  --      1.3000                 1.3976                 1.9846
 IR Inten    --      4.9341                 3.1730                56.4753

                     55                     56                     57
                      A                      A                      A
 Frequencies --   1383.3943              1398.0476              1419.8019
 Red. masses --      2.3050                 1.3877                 1.2622
 Frc consts  --      2.5990                 1.5980                 1.4991
 IR Inten    --    112.4107                10.0326                10.2121

                     58                     59                     60
                      A                      A                      A
 Frequencies --   1423.0660              1426.0475              1452.4072
 Red. masses --      1.2439                 1.2712                 1.2297
 Frc consts  --      1.4842                 1.5231                 1.5283
 IR Inten    --      5.7816                 9.3173                17.2633

                     61                     62                     63
                      A                      A                      A
 Frequencies --   1504.5879              1507.5880              1512.4400
 Red. masses --      1.0761                 1.0991                 1.0490
 Frc consts  --      1.4352                 1.4719                 1.4138
 IR Inten    --      1.4999                 4.6271                 0.5758

                     64                     65                     66
                      A                      A                      A
 Frequencies --   1512.8132              1518.2134              1522.4059
 Red. masses --      1.0585                 1.1034                 1.0917
 Frc consts  --      1.4273                 1.4984                 1.4908
 IR Inten    --      1.8612                10.2286                 9.0270

                     67                     68                     69
                      A                      A                      A
 Frequencies --   1522.9509              1537.8396              1548.6146
 Red. masses --      1.0669                 1.0625                 1.0899
 Frc consts  --      1.4579                 1.4805                 1.5400
 IR Inten    --      5.5860                 9.1716                17.2262

                     70                     71                     72
                      A                      A                      A
 Frequencies --   1553.1649              1645.8120              1724.3818
 Red. masses --      1.1269                 1.2362                 6.2001
 Frc consts  --      1.6017                 1.9729                10.8621
 IR Inten    --      2.7387               106.6575                22.4591

                     73                     74                     75
                      A                      A                      A
 Frequencies --   1793.6432              3034.8357              3039.7116
 Red. masses --      7.7311                 1.0706                 1.0494
 Frc consts  --     14.6542                 5.8094                 5.7131
 IR Inten    --    323.5579                43.1756                11.5563

                     76                     77                     78
                      A                      A                      A
 Frequencies --   3041.4795              3044.4656              3046.0424
 Red. masses --      1.0530                 1.0580                 1.0402
 Frc consts  --      5.7392                 5.7778                 5.6864
 IR Inten    --     36.7526                 6.9516                38.9251

                     79                     80                     81
                      A                      A                      A
 Frequencies --   3055.6256              3087.4402              3091.0558
 Red. masses --      1.0371                 1.0949                 1.1014
 Frc consts  --      5.7050                 6.1492                 6.2003
 IR Inten    --      4.0934                50.1927                38.5724

                     82                     83                     84
                      A                      A                      A
 Frequencies --   3099.6638              3100.9034              3108.7844
 Red. masses --      1.1015                 1.0957                 1.0997
 Frc consts  --      6.2355                 6.2075                 6.2621
 IR Inten    --      2.1882                37.9041                84.8386

                     85                     86                     87
                      A                      A                      A
 Frequencies --   3120.9206              3127.9220              3135.5239
 Red. masses --      1.1014                 1.1028                 1.1015
 Frc consts  --      6.3205                 6.3573                 6.3805
 IR Inten    --     26.6836                11.4958                40.7715

                     88                     89                     90
                      A                      A                      A
 Frequencies --   3138.3370              3152.1975              3193.9106
 Red. masses --      1.0988                 1.0885                 1.0898
 Frc consts  --      6.3760                 6.3724                 6.5501
 IR Inten    --     41.1094                16.5102                 6.9303

                     91                     92                     93
                      A                      A                      A
 Frequencies --   3505.4828              3575.2933              3693.8212
 Red. masses --      1.0735                 1.0461                 1.1020
 Frc consts  --      7.7720                 7.8782                 8.8586
 IR Inten    --      3.1204                22.7312                23.9708

 - Thermochemistry -
 -------------------
 Temperature   298.150 Kelvin.  Pressure   1.00000 Atm.
 Atom     1 has atomic number  6 and mass  12.00000

 Molecular mass:   184.15756 amu.
 Principal axes and moments of inertia in atomic units:
                           1         2         3
     Eigenvalues --   997.841786824.375247033.35794
           X            0.99998   0.00109   0.00626
           Y           -0.00110   1.00000   0.00170
           Z           -0.00625  -0.00171   0.99998
 This molecule is an asymmetric top.
 Rotational symmetry number  1.
 Warning -- assumption of classical behavior for rotation
           may cause significant error
 Rotational temperatures (Kelvin)      0.08680     0.01269     0.01231
 Rotational constants (GHZ):           1.80864     0.26446     0.25660
 Zero-point vibrational energy     779904.6 (Joules/Mol)
                                  186.40167 (Kcal/Mol)
 Warning -- explicit consideration of  25 degrees of freedom as
           vibrations may cause significant error
 Vibrational temperatures:     31.85    40.41    59.50    98.10   138.28
          (Kelvin)            203.10   238.85   295.73   334.57   343.52
                              407.66   423.68   458.07   490.27   518.43
                              540.45   554.92   600.17   621.74   636.36
                              661.41   763.50   785.63   839.82   845.59
                              947.21  1019.99  1038.95  1127.39  1220.62
                             1267.51  1280.72  1318.88  1328.32  1356.87
                             1395.79  1426.62  1439.20  1477.02  1518.67
                             1526.69  1579.60  1590.98  1613.44  1666.61
                             1742.58  1755.10  1797.30  1826.92  1853.51
                             1906.49  1931.03  1939.69  1976.58  1990.40
                             2011.48  2042.78  2047.47  2051.76  2089.69
                             2164.77  2169.08  2176.06  2176.60  2184.37
                             2190.40  2191.19  2212.61  2228.11  2234.66
                             2367.96  2481.00  2580.65  4366.45  4373.47
                             4376.01  4380.31  4382.58  4396.36  4442.14
                             4447.34  4459.72  4461.51  4472.85  4490.31
                             4500.38  4511.32  4515.37  4535.31  4595.33
                             5043.61  5144.05  5314.58

 Zero-point correction=                           0.297050 (Hartree/Particle)
 Thermal correction to Energy=                    0.312619
 Thermal correction to Enthalpy=                  0.313563
 Thermal correction to Gibbs Free Energy=         0.252997
 Sum of electronic and zero-point Energies=           -577.582109
 Sum of electronic and thermal Energies=              -577.566540
 Sum of electronic and thermal Enthalpies=            -577.565596
 Sum of electronic and thermal Free Energies=         -577.626162

                     E (Thermal)             CV                S
                      KCal/Mol        Cal/Mol-Kelvin    Cal/Mol-Kelvin
 Total                  196.171             58.428            127.472
 Electronic               0.000              0.000              0.000
 Translational            0.889              2.981             41.538
 Rotational               0.889              2.981             32.238
 Vibrational            194.394             52.466             53.696
 Vibration     1          0.593              1.985              6.433
 Vibration     2          0.593              1.984              5.960
 Vibration     3          0.594              1.981              5.193
 Vibration     4          0.598              1.969              4.205
 Vibration     5          0.603              1.952              3.532
 Vibration     6          0.615              1.912              2.788
 Vibration     7          0.624              1.884              2.480
 Vibration     8          0.640              1.832              2.083
 Vibration     9          0.653              1.791              1.859
 Vibration    10          0.657              1.781              1.812
 Vibration    11          0.682              1.705              1.513
 Vibration    12          0.689              1.684              1.448
 Vibration    13          0.705              1.638              1.318
 Vibration    14          0.720              1.594              1.209
 Vibration    15          0.735              1.554              1.121
 Vibration    16          0.746              1.522              1.057
 Vibration    17          0.754              1.501              1.017
 Vibration    18          0.780              1.433              0.902
 Vibration    19          0.793              1.400              0.852
 Vibration    20          0.802              1.378              0.819
 Vibration    21          0.818              1.339              0.767
 Vibration    22          0.886              1.182              0.586
 Vibration    23          0.901              1.148              0.552
 Vibration    24          0.941              1.067              0.479
 Vibration    25          0.945              1.058              0.471

                           ! Non-Optimized Parameters !
 Normal termination of Gaussian 16 at Mon Dec 14 13:18:28 2020.

 ----------------------------------------------------------------------
 # B3LYP/6-311++G(d,p) empiricaldispersion=gd3bj scf=xqc pop=npa geom=c
 heck
 ----------------------------------------------------------------------

 ---------------------------------------
 CID_154212079_JID_3829_Energie_neutraal
 ---------------------------------------
 Structure from the checkpoint file:  "JID_3829.chk"
 Charge =  0 Multiplicity = 1

 SCF Done:  E(RB3LYP) =  -578.058589268     A.U. after   14 cycles
 Normal termination of Gaussian 16 at Mon Dec 14 13:21:52 2020.

 ----------------------------------------------------------------------
 # B3LYP/6-311++G(d,p) empiricaldispersion=gd3bj scf=xqc pop=npa geom=c
 heck
 ----------------------------------------------------------------------

 -------------------------------------
 CID_154212079_JID_3829_Energie_kation
 -------------------------------------
 Structure from the checkpoint file:  "JID_3829.chk"
 Charge =  1 Multiplicity = 2

 SCF Done:  E(UB3LYP) =  -577.759915579     A.U. after   26 cycles
 Normal termination of Gaussian 16 at Mon Dec 14 13:30:15 2020.
 Gaussian 16:  ES64L-G16RevA.03 25-Dec-2016

 ----------------------------------------------------------------------
 # B3LYP/6-311++G(d,p) empiricaldispersion=gd3bj scf=xqc pop=npa geom=c
 heck
 ----------------------------------------------------------------------

 ------------------------------------
 CID_154212079_JID_3829_Energie_anion
 ------------------------------------
 Structure from the checkpoint file:  "JID_3829.chk"
 Charge = -1 Multiplicity = 2

                         Standard orientation:
 ---------------------------------------------------------------------
 Center     Atomic      Atomic             Coordinates (Angstroms)
 Number     Number       Type             X           Y           Z
 ---------------------------------------------------------------------
      1          6           0       -3.904166   -0.164903    0.972414
      2          6           0       -3.054728    0.298635   -0.217984
      3          6           0       -2.955060   -0.838483   -1.259284
      4          6           0       -3.735263    1.508450   -0.882138
      5          7           0       -1.747400    0.789915    0.262555
      6          6           0       -0.970003    0.061137    1.257740
      7          6           0       -0.345769   -1.299979    0.885008
      8          6           0        0.547466   -1.275264   -0.372664
      9          6           0        1.695854   -0.315356   -0.262016
     10          6           0        2.984941   -0.669950   -0.203177
     11          6           0        4.139009    0.268036   -0.121877
     12          8           0        5.259809   -0.065454   -0.484574
     13          7           0        3.866973    1.540361    0.340586
     14          1           0       -4.924845   -0.378854    0.639160
     15          1           0       -3.949172    0.614277    1.740585
     16          1           0       -3.508752   -1.079078    1.428184
     17          1           0       -3.947226   -1.102497   -1.644624
     18          1           0       -2.342314   -0.526134   -2.113898
     19          1           0       -2.512090   -1.743601   -0.835165
     20          1           0       -3.854933    2.320411   -0.158907
     21          1           0       -3.127810    1.884560   -1.715114
     22          1           0       -4.719024    1.238629   -1.282493
     23          1           0       -1.168741    1.041944   -0.535089
     24          1           0       -0.162322    0.736436    1.570409
     25          1           0       -1.594299   -0.075020    2.146308
     26          1           0        0.256766   -1.638174    1.738985
     27          1           0       -1.131535   -2.050525    0.742195
     28          1           0        0.929961   -2.284190   -0.564054
     29          1           0       -0.069007   -1.002073   -1.239555
     30          1           0        1.441518    0.744576   -0.238448
     31          1           0        3.279051   -1.713666   -0.283970
     32          1           0        3.091780    1.678182    0.973302
     33          1           0        4.683825    2.112558    0.510656
 ---------------------------------------------------------------------

 SCF Done:  E(UB3LYP) =  -578.054852666     A.U. after   33 cycles
 SCF Done:  E(UB3LYP) =  -578.054852666     a.u. after    1 cycles

 The electronic state is 2-A.
 Alpha  occ. eigenvalues --  -18.96020 -14.21043 -14.19149 -10.14097 -10.11170
 Alpha  occ. eigenvalues --  -10.08512 -10.06360 -10.06079 -10.06006 -10.05969
 Alpha  occ. eigenvalues --  -10.05856 -10.05396 -10.04414  -0.91138  -0.80687
 Alpha  occ. eigenvalues --   -0.78325  -0.70337  -0.68034  -0.63563  -0.59586
 Alpha  occ. eigenvalues --   -0.58972  -0.56984  -0.51154  -0.47171  -0.44848
 Alpha  occ. eigenvalues --   -0.44110  -0.42038  -0.39214  -0.36835  -0.36473
 Alpha  occ. eigenvalues --   -0.35093  -0.33552  -0.32549  -0.31932  -0.30813
 Alpha  occ. eigenvalues --   -0.29491  -0.29121  -0.28792  -0.28188  -0.27435
 Alpha  occ. eigenvalues --   -0.26990  -0.25781  -0.25247  -0.24184  -0.23526
 Alpha  occ. eigenvalues --   -0.22924  -0.21824  -0.16273  -0.15040  -0.13406
 Alpha  occ. eigenvalues --   -0.11804   0.04233
 Alpha virt. eigenvalues --    0.06136   0.07245   0.07720   0.08286   0.08676
 Alpha virt. eigenvalues --    0.09776   0.09942   0.10270   0.10591   0.10905
 Alpha virt. eigenvalues --    0.12360   0.12671   0.12807   0.13484   0.13688

  Beta  occ. eigenvalues --  -18.95839 -14.21009 -14.19145 -10.13967 -10.11169
  Beta  occ. eigenvalues --  -10.08484 -10.06374 -10.06059 -10.05972 -10.05929
  Beta  occ. eigenvalues --  -10.05825 -10.05170 -10.04321  -0.90823  -0.80673
  Beta  occ. eigenvalues --   -0.78194  -0.70197  -0.67872  -0.63369  -0.59521
  Beta  occ. eigenvalues --   -0.58918  -0.56839  -0.50858  -0.46995  -0.44722
  Beta  occ. eigenvalues --   -0.43915  -0.41954  -0.39154  -0.36756  -0.36373
  Beta  occ. eigenvalues --   -0.35031  -0.33432  -0.32456  -0.31849  -0.30672
  Beta  occ. eigenvalues --   -0.29401  -0.28893  -0.28296  -0.28104  -0.27285
  Beta  occ. eigenvalues --   -0.26942  -0.25708  -0.25136  -0.24102  -0.23474
  Beta  occ. eigenvalues --   -0.22864  -0.21751  -0.15727  -0.14107  -0.13110
  Beta  occ. eigenvalues --   -0.11769
  Beta virt. eigenvalues --    0.06405   0.07428   0.07908   0.08398   0.08980
  Beta virt. eigenvalues --    0.09049   0.09830   0.10197   0.10521   0.10778
  Beta virt. eigenvalues --    0.11138   0.12461   0.12725   0.12937   0.13537

 Mulliken charges and spin densities:
               1          2
     1  C    0.760618  -1.307415
     2  C   -1.906792   1.717128
     3  C    0.718422  -1.190459
     4  C    0.132212  -0.561557
     5  N    0.145448  -0.037735
     6  C    0.275880  -0.736764
     7  C    0.043610  -0.195048
     8  C   -0.415889   0.298651
     9  C    0.157214   0.029096
    10  C    0.053377  -0.231353
    11  C   -0.192988   0.036434
    12  O   -0.403219   0.057196
    13  N   -0.341021  -0.036163
    14  H   -0.152893   0.292539
    15  H   -0.051804   0.204358
    16  H   -0.168777   0.319555
    17  H   -0.111020   0.254186
    18  H   -0.030036   0.173500
    19  H   -0.049271   0.195517
    20  H   -0.005334   0.169089
    21  H   -0.034328   0.154905
    22  H   -0.002748   0.127424
    23  H    0.230860   0.010320
    24  H   -0.062284   0.248590
    25  H   -0.158706   0.303639
    26  H    0.092133   0.051963
    27  H   -0.123355   0.263670
    28  H   -0.014038   0.174011
    29  H    0.146954  -0.021614
    30  H    0.085282  -0.023778
    31  H    0.131058   0.010230
    32  H    0.040864   0.178902
    33  H    0.210574   0.070983
 Sum of Mulliken charges =  -1.00000   1.00000

 Dipole moment (field-independent basis, Debye):
    X=             -2.3225    Y=              1.1224    Z=              0.0874  Tot=              2.5809
 Quadrupole moment (field-independent basis, Debye-Ang):
   XX=           -189.0548   YY=           -106.9877   ZZ=           -108.4240
   XY=              1.7310   XZ=              7.9137   YZ=             -0.8778

 Summary of Natural Population Analysis:

                                       Natural Population
                Natural  -----------------------------------------------
    Atom  No    Charge         Core      Valence    Rydberg      Total
 -----------------------------------------------------------------------
      C    1   -0.29182      0.99962     2.28517    0.00703     3.29182
      C    2    0.05351      0.99959     1.93394    0.01295     2.94649
      C    3   -0.29463      0.99962     2.28702    0.00799     3.29463
      C    4   -0.28177      0.99962     2.27579    0.00636     3.28177
      N    5   -0.34949      0.99972     2.83761    0.01216     3.84949
      C    6   -0.08975      0.99961     2.07783    0.01231     3.08975
      C    7   -0.19208      0.99962     2.18476    0.00770     3.19208
      C    8   -0.21175      0.99961     2.20313    0.00901     3.21175
      C    9   -0.03051      0.99953     2.02258    0.00840     3.03051
      C   10   -0.13392      0.99947     2.12487    0.00957     3.13392
      C   11    0.33607      0.99969     1.64210    0.02214     2.66393
      O   12   -0.31110      0.99988     3.30530    0.00592     4.31110
      N   13   -0.41505      0.99972     2.90698    0.00835     3.91505
      H   14    0.10164      0.00000     0.39739    0.00097     0.39836
      H   15    0.10277      0.00000     0.39623    0.00100     0.39723
      H   16    0.10210      0.00000     0.39678    0.00112     0.39790
      H   17    0.09889      0.00000     0.40018    0.00093     0.40111
      H   18    0.09693      0.00000     0.40207    0.00100     0.40307
      H   19    0.10198      0.00000     0.39683    0.00119     0.39802
      H   20    0.10294      0.00000     0.39585    0.00121     0.39706
      H   21    0.09629      0.00000     0.40284    0.00087     0.40371
      H   22    0.09670      0.00000     0.40244    0.00086     0.40330
      H   23    0.17187      0.00000     0.32522    0.00291     0.32813
      H   24    0.09522      0.00000     0.40363    0.00115     0.40478
      H   25    0.09419      0.00000     0.40463    0.00118     0.40581
      H   26    0.09724      0.00000     0.40153    0.00123     0.40276
      H   27    0.09417      0.00000     0.40444    0.00139     0.40583
      H   28    0.09890      0.00000     0.39993    0.00117     0.40110
      H   29    0.10035      0.00000     0.39816    0.00149     0.39965
      H   30    0.08590      0.00000     0.41258    0.00152     0.41410
      H   31    0.09627      0.00000     0.40247    0.00126     0.40373
      H   32    0.19079      0.00000     0.30682    0.00238     0.30921
      H   33    0.18711      0.00000     0.31066    0.00222     0.31289
 =======================================================================
   * Total *   -0.00000     12.99530    37.84775    0.15695    51.00000

 Normal termination of Gaussian 16 at Mon Dec 14 13:41:08 2020.
