 Gaussian 16, Revision A.03,

 -----------------------------------------------------------
 # opt freq B3LYP/6-31G(d) empiricaldispersion=gd3bj scf=xqc
 -----------------------------------------------------------

 --------------------------------
 CID_114914859_JID_10253_neutraal
 --------------------------------
 Symbolic Z-matrix:
 Charge =  0 Multiplicity = 1

 SCF Done:  E(RB3LYP) =  -1705.94812637     A.U. after   18 cycles
 SCF Done:  E(RB3LYP) =  -1705.94232901     A.U. after   15 cycles
 SCF Done:  E(RB3LYP) =  -1705.95604019     A.U. after   15 cycles
 SCF Done:  E(RB3LYP) =  -1705.95679110     A.U. after   14 cycles
 SCF Done:  E(RB3LYP) =  -1705.95524561     A.U. after   15 cycles
 SCF Done:  E(RB3LYP) =  -1705.95712175     A.U. after   14 cycles
 SCF Done:  E(RB3LYP) =  -1705.95904273     A.U. after   13 cycles
 SCF Done:  E(RB3LYP) =  -1705.95933596     A.U. after   13 cycles
 SCF Done:  E(RB3LYP) =  -1705.95942912     A.U. after   13 cycles
 SCF Done:  E(RB3LYP) =  -1705.95947304     A.U. after   11 cycles
 SCF Done:  E(RB3LYP) =  -1705.95950326     A.U. after    8 cycles
 SCF Done:  E(RB3LYP) =  -1705.95950359     A.U. after    8 cycles
 SCF Done:  E(RB3LYP) =  -1705.95950372     A.U. after    8 cycles
 SCF Done:  E(RB3LYP) =  -1705.95950374     A.U. after    7 cycles
 SCF Done:  E(RB3LYP) =  -1705.95950373     A.U. after    7 cycles
 Optimization completed.
    -- Stationary point found.
 Normal termination of Gaussian 16 at Sat Dec 12 15:07:47 2020.

 --------------------------------------------------------------------
 #N Geom=AllCheck Guess=TCheck SCRF=Check GenChk RB3LYP/6-31G(d) Freq
 --------------------------------------------------------------------

 Structure from the checkpoint file:  "JID_10253.chk"
 --------------------------------
 CID_114914859_JID_10253_neutraal
 --------------------------------
 Charge =  0 Multiplicity = 1

 SCF Done:  E(RB3LYP) =  -1705.95950373     A.U. after    1 cycles

  Exact polarizability: 218.104  -9.281 167.474  29.891  16.339 145.049
 Approx polarizability: 331.081  -9.031 316.316  74.284  63.949 283.546

                      1                      2                      3
                      A                      A                      A
 Frequencies --     27.2561                29.7886                48.4898
 Red. masses --      6.8964                 9.4810                 8.9409
 Frc consts  --      0.0030                 0.0050                 0.0124
 IR Inten    --      0.2165                 0.3966                 0.1420

                      4                      5                      6
                      A                      A                      A
 Frequencies --     71.3099                83.1301                88.3972
 Red. masses --     11.4681                 7.9537                 6.0298
 Frc consts  --      0.0344                 0.0324                 0.0278
 IR Inten    --      0.6495                 1.0063                 0.8584

                      7                      8                      9
                      A                      A                      A
 Frequencies --    108.8652               117.4260               124.7790
 Red. masses --     11.1069                 8.7207                 7.3458
 Frc consts  --      0.0776                 0.0708                 0.0674
 IR Inten    --      0.0936                 1.4307                 2.7681

                     10                     11                     12
                      A                      A                      A
 Frequencies --    133.7755               174.1794               214.8208
 Red. masses --      1.1177                 6.2851                 6.5445
 Frc consts  --      0.0118                 0.1123                 0.1779
 IR Inten    --      0.1421                 0.7488                 1.0203

                     13                     14                     15
                      A                      A                      A
 Frequencies --    239.3271               248.6497               257.9938
 Red. masses --      8.0112                 4.2039                 4.5652
 Frc consts  --      0.2704                 0.1531                 0.1790
 IR Inten    --      3.9087                 2.9599                 3.3235

                     16                     17                     18
                      A                      A                      A
 Frequencies --    277.6151               325.2005               338.1242
 Red. masses --      7.3554                 7.1385                 7.0813
 Frc consts  --      0.3340                 0.4448                 0.4770
 IR Inten    --     11.4643                11.3890                 3.8262

                     19                     20                     21
                      A                      A                      A
 Frequencies --    396.3727               438.3747               449.5858
 Red. masses --     11.7079                 4.8632                 8.3541
 Frc consts  --      1.0838                 0.5506                 0.9949
 IR Inten    --      1.9196                29.0777                 3.8224

                     22                     23                     24
                      A                      A                      A
 Frequencies --    463.6236               472.6099               494.9618
 Red. masses --      3.6798                 4.0932                 8.2820
 Frc consts  --      0.4660                 0.5387                 1.1954
 IR Inten    --     24.1758                 2.0355                 0.5222

                     25                     26                     27
                      A                      A                      A
 Frequencies --    509.9661               543.3804               552.0615
 Red. masses --      2.6707                 4.5000                 4.0604
 Frc consts  --      0.4092                 0.7828                 0.7291
 IR Inten    --     47.8898                21.7054                 4.1671

                     28                     29                     30
                      A                      A                      A
 Frequencies --    576.0595               593.3601               599.5958
 Red. masses --      4.7818                 1.4988                 2.8696
 Frc consts  --      0.9349                 0.3109                 0.6078
 IR Inten    --      3.2924                61.8754                28.3465

                     31                     32                     33
                      A                      A                      A
 Frequencies --    660.9034               696.8858               704.9608
 Red. masses --      4.3930                 5.1309                 8.9209
 Frc consts  --      1.1306                 1.4681                 2.6121
 IR Inten    --     42.0581                32.2332                 1.2368

                     34                     35                     36
                      A                      A                      A
 Frequencies --    742.6958               749.0590               760.5591
 Red. masses --      9.0365                 5.0588                 3.5615
 Frc consts  --      2.9368                 1.6724                 1.2138
 IR Inten    --      6.4766                73.0783                 3.5586

                     37                     38                     39
                      A                      A                      A
 Frequencies --    772.3207               782.7829               800.4288
 Red. masses --      5.7793                 2.9133                 2.2501
 Frc consts  --      2.0310                 1.0518                 0.8494
 IR Inten    --     10.0815                 6.0888                56.5463

                     40                     41                     42
                      A                      A                      A
 Frequencies --    826.9298               841.5429               875.7932
 Red. masses --     11.3540                 1.4313                 4.1438
 Frc consts  --      4.5744                 0.5972                 1.8726
 IR Inten    --     31.1998                19.0119                14.6146

                     43                     44                     45
                      A                      A                      A
 Frequencies --    929.6387               960.6111              1032.5851
 Red. masses --      1.4094                 5.5682                 1.5206
 Frc consts  --      0.7177                 3.0274                 0.9552
 IR Inten    --      0.3463                 9.0887                 2.7791

                     46                     47                     48
                      A                      A                      A
 Frequencies --   1046.0899              1075.6723              1077.8361
 Red. masses --      2.5884                 2.7919                 1.5104
 Frc consts  --      1.6689                 1.9033                 1.0338
 IR Inten    --     19.4317                17.5118                 3.9143

                     49                     50                     51
                      A                      A                      A
 Frequencies --   1101.0054              1162.2702              1166.7562
 Red. masses --      4.5216                 3.5603                 4.6955
 Frc consts  --      3.2294                 2.8337                 3.7661
 IR Inten    --     30.5993               229.4181                36.1177

                     52                     53                     54
                      A                      A                      A
 Frequencies --   1208.2482              1254.2894              1257.7679
 Red. masses --      1.5957                 1.7826                 1.6174
 Frc consts  --      1.3725                 1.6524                 1.5075
 IR Inten    --    100.8148                20.1886                28.7934

                     55                     56                     57
                      A                      A                      A
 Frequencies --   1344.7292              1379.5850              1391.4038
 Red. masses --      5.6452                 4.1545                 3.8554
 Frc consts  --      6.0145                 4.6588                 4.3977
 IR Inten    --    734.9843                82.7431                61.6129

                     58                     59                     60
                      A                      A                      A
 Frequencies --   1402.7586              1408.6735              1447.0705
 Red. masses --      3.7605                 3.7466                 1.2461
 Frc consts  --      4.3597                 4.3803                 1.5373
 IR Inten    --    213.3760                44.2866                 1.8015

                     61                     62                     63
                      A                      A                      A
 Frequencies --   1483.8039              1490.2639              1509.4293
 Red. masses --      2.9354                 4.6130                 1.0800
 Frc consts  --      3.8077                 6.0362                 1.4497
 IR Inten    --    114.5101                17.5796                 9.4908

                     64                     65                     66
                      A                      A                      A
 Frequencies --   1519.7775              1529.4970              1582.3485
 Red. masses --      1.8287                 2.0451                 5.6181
 Frc consts  --      2.4886                 2.8188                 8.2880
 IR Inten    --     47.2582                61.9311                38.4998

                     67                     68                     69
                      A                      A                      A
 Frequencies --   1615.9841              1625.7252              1774.2505
 Red. masses --      6.6264                13.1801                 9.1355
 Frc consts  --     10.1953                20.5241                16.9438
 IR Inten    --     42.2969               173.2663               214.2945

                     70                     71                     72
                      A                      A                      A
 Frequencies --   1804.3510              3046.0647              3101.1611
 Red. masses --      9.8806                 1.0410                 1.0970
 Frc consts  --     18.9530                 5.6910                 6.2159
 IR Inten    --    392.8797                23.5221                12.0326

                     73                     74                     75
                      A                      A                      A
 Frequencies --   3142.3261              3248.0865              3261.3984
 Red. masses --      1.1012                 1.0916                 1.0939
 Frc consts  --      6.4064                 6.7855                 6.8557
 IR Inten    --     12.6007                 1.7855                 0.2804

                     76                     77                     78
                      A                      A                      A
 Frequencies --   3268.7680              3565.5470              3700.5927
 Red. masses --      1.0967                 1.0749                 1.0642
 Frc consts  --      6.9044                 8.0510                 8.5867
 IR Inten    --      1.0579                46.7067                90.5750

 - Thermochemistry -
 -------------------
 Temperature   298.150 Kelvin.  Pressure   1.00000 Atm.
 Atom     1 has atomic number  6 and mass  12.00000

 Molecular mass:   311.98747 amu.
 Principal axes and moments of inertia in atomic units:
                           1         2         3
     Eigenvalues --  3698.619829589.84735**********
           X            0.99981  -0.01477   0.01280
           Y            0.01554   0.99796  -0.06190
           Z           -0.01185   0.06208   0.99800
 This molecule is an asymmetric top.
 Rotational symmetry number  1.
 Warning -- assumption of classical behavior for rotation
           may cause significant error
 Rotational temperatures (Kelvin)      0.02342     0.00903     0.00839
 Rotational constants (GHZ):           0.48795     0.18819     0.17485
 Zero-point vibrational energy     491248.3 (Joules/Mol)
                                  117.41117 (Kcal/Mol)
 Warning -- explicit consideration of  30 degrees of freedom as
           vibrations may cause significant error
 Vibrational temperatures:     39.22    42.86    69.77   102.60   119.61
          (Kelvin)            127.18   156.63   168.95   179.53   192.47
                              250.61   309.08   344.34   357.75   371.20
                              399.43   467.89   486.49   570.29   630.72
                              646.85   667.05   679.98   712.14   733.73
                              781.80   794.29   828.82   853.71   862.68
                              950.89  1002.66  1014.28  1068.57  1077.73
                             1094.27  1111.20  1126.25  1151.64  1189.77
                             1210.79  1260.07  1337.54  1382.11  1485.66
                             1505.09  1547.65  1550.77  1584.10  1672.25
                             1678.70  1738.40  1804.64  1809.65  1934.77
                             1984.92  2001.92  2018.26  2026.77  2082.01
                             2134.86  2144.16  2171.73  2186.62  2200.61
                             2276.65  2325.04  2339.06  2552.75  2596.06
                             4382.61  4461.88  4521.11  4673.27  4692.42
                             4703.03  5130.03  5324.33

 Zero-point correction=                           0.187107 (Hartree/Particle)
 Thermal correction to Energy=                    0.205605
 Thermal correction to Enthalpy=                  0.206549
 Thermal correction to Gibbs Free Energy=         0.138349
 Sum of electronic and zero-point Energies=          -1705.772397
 Sum of electronic and thermal Energies=             -1705.753899
 Sum of electronic and thermal Enthalpies=           -1705.752955
 Sum of electronic and thermal Free Energies=        -1705.821154

                     E (Thermal)             CV                S
                      KCal/Mol        Cal/Mol-Kelvin    Cal/Mol-Kelvin
 Total                  129.019             67.430            143.538
 Electronic               0.000              0.000              0.000
 Translational            0.889              2.981             43.110
 Rotational               0.889              2.981             34.259
 Vibrational            127.241             61.468             66.170
 Vibration     1          0.593              1.984              6.020
 Vibration     2          0.594              1.984              5.843
 Vibration     3          0.595              1.978              4.878
 Vibration     4          0.598              1.968              4.117
 Vibration     5          0.600              1.961              3.816
 Vibration     6          0.601              1.957              3.695
 Vibration     7          0.606              1.942              3.289
 Vibration     8          0.608              1.935              3.142
 Vibration     9          0.610              1.928              3.025
 Vibration    10          0.613              1.920              2.891
 Vibration    11          0.627              1.874              2.390
 Vibration    12          0.645              1.818              2.002
 Vibration    13          0.657              1.780              1.808
 Vibration    14          0.662              1.765              1.740
 Vibration    15          0.667              1.749              1.675
 Vibration    16          0.679              1.715              1.548
 Vibration    17          0.709              1.625              1.284
 Vibration    18          0.718              1.599              1.221
 Vibration    19          0.763              1.478              0.976
 Vibration    20          0.799              1.387              0.832
 Vibration    21          0.808              1.362              0.797
 Vibration    22          0.821              1.331              0.756
 Vibration    23          0.829              1.311              0.730
 Vibration    24          0.851              1.261              0.671
 Vibration    25          0.865              1.228              0.634
 Vibration    26          0.899              1.154              0.558
 Vibration    27          0.907              1.135              0.540
 Vibration    28          0.932              1.083              0.493
 Vibration    29          0.951              1.046              0.461
 Vibration    30          0.958              1.033              0.450

 Optimization completed.
    -- Stationary point found.
 Normal termination of Gaussian 16 at Sat Dec 12 15:22:55 2020.

 ----------------------------------------------------------------------
 # B3LYP/6-311++G(d,p) empiricaldispersion=gd3bj scf=xqc pop=npa geom=c
 heck
 ----------------------------------------------------------------------

 ----------------------------------------
 CID_114914859_JID_10253_Energie_neutraal
 ----------------------------------------
 Structure from the checkpoint file:  "JID_10253.chk"
 Charge =  0 Multiplicity = 1

 SCF Done:  E(RB3LYP) =  -1706.27971990     A.U. after   18 cycles
 Normal termination of Gaussian 16 at Sat Dec 12 15:30:25 2020.

 ----------------------------------------------------------------------
 # B3LYP/6-311++G(d,p) empiricaldispersion=gd3bj scf=xqc pop=npa geom=c
 heck
 ----------------------------------------------------------------------

 --------------------------------------
 CID_114914859_JID_10253_Energie_kation
 --------------------------------------
 Structure from the checkpoint file:  "JID_10253.chk"
 Charge =  1 Multiplicity = 2

 SCF Done:  E(UB3LYP) =  -1705.95698154     A.U. after   33 cycles
 SCF Done:  E(UB3LYP) =  -1705.95698154     a.u. after    1 cycles
 Normal termination of Gaussian 16 at Sat Dec 12 15:48:50 2020.
 Gaussian 16:  ES64L-G16RevA.03 25-Dec-2016

 ----------------------------------------------------------------------
 # B3LYP/6-311++G(d,p) empiricaldispersion=gd3bj scf=xqc pop=npa geom=c
 heck
 ----------------------------------------------------------------------

 -------------------------------------
 CID_114914859_JID_10253_Energie_anion
 -------------------------------------
 Structure from the checkpoint file:  "JID_10253.chk"
 Charge = -1 Multiplicity = 2

                         Standard orientation:
 ---------------------------------------------------------------------
 Center     Atomic      Atomic             Coordinates (Angstroms)
 Number     Number       Type             X           Y           Z
 ---------------------------------------------------------------------
      1          6           0       -3.618131    1.860255   -1.664349
      2          6           0       -3.197739    0.584242   -0.994695
      3          6           0       -3.694196   -0.663911   -1.270827
      4         16           0       -2.963833   -1.914258   -0.331308
      5          6           0       -1.961374   -0.754943    0.499269
      6          6           0       -2.185868    0.527688    0.020664
      7          7           0       -1.520326    1.694937    0.431474
      8          6           0       -0.170302    1.892489    0.674890
      9          8           0        0.210317    2.829214    1.359313
     10          6           0        0.793014    1.001684   -0.017117
     11          6           0        0.661718    0.256356   -1.173410
     12          6           0        1.858484   -0.405552   -1.533507
     13          6           0        2.860857   -0.133040   -0.633375
     14         16           0        2.394264    0.932022    0.647155
     15          7           0        4.200461   -0.645682   -0.689961
     16          8           0        4.976529   -0.292294    0.202518
     17          8           0        4.479395   -1.401183   -1.622526
     18          6           0       -1.078552   -1.161794    1.591418
     19          8           0       -0.374134   -0.418142    2.247400
     20          8           0       -1.135666   -2.498485    1.817847
     21          1           0       -4.167461    2.515568   -0.976081
     22          1           0       -2.745543    2.422066   -2.015931
     23          1           0       -4.269181    1.659771   -2.519207
     24          1           0       -4.448720   -0.914192   -2.005139
     25          1           0       -2.087103    2.442377    0.818530
     26          1           0       -0.256262    0.190380   -1.742797
     27          1           0        1.997171   -1.044884   -2.395133
     28          1           0       -0.529743   -2.673831    2.561439
 ---------------------------------------------------------------------

 SCF Done:  E(UB3LYP) =  -1706.34100587     A.U. after   27 cycles

 The electronic state is 2-A.
 Alpha  occ. eigenvalues --  -88.79224 -88.75059 -19.07598 -19.00861 -18.98914
 Alpha  occ. eigenvalues --  -18.98880 -18.97405 -14.37806 -14.24554 -10.20633
 Alpha  occ. eigenvalues --  -10.16355 -10.13448 -10.11923 -10.11415 -10.10835
 Alpha  occ. eigenvalues --  -10.10386 -10.10384 -10.08011 -10.06535 -10.06100
 Alpha  occ. eigenvalues --   -7.87836  -7.83661  -5.84130  -5.83761  -5.83433
 Alpha  occ. eigenvalues --   -5.79959  -5.79590  -5.79268  -1.06815  -1.01365
 Alpha  occ. eigenvalues --   -0.93246  -0.91937  -0.89657  -0.84478  -0.78966
 Alpha  occ. eigenvalues --   -0.77054  -0.70015  -0.66055  -0.65191  -0.62472
 Alpha  occ. eigenvalues --   -0.61610  -0.57252  -0.55932  -0.51148  -0.49033
 Alpha  occ. eigenvalues --   -0.48090  -0.43928  -0.42226  -0.41868  -0.40855
 Alpha  occ. eigenvalues --   -0.39287  -0.38685  -0.37801  -0.36443  -0.35858
 Alpha  occ. eigenvalues --   -0.35833  -0.35280  -0.34211  -0.33532  -0.32401
 Alpha  occ. eigenvalues --   -0.31705  -0.30417  -0.29517  -0.29227  -0.28877
 Alpha  occ. eigenvalues --   -0.27217  -0.26617  -0.25439  -0.23153  -0.23062
 Alpha  occ. eigenvalues --   -0.19942  -0.18640  -0.17148  -0.16347  -0.16141
 Alpha  occ. eigenvalues --   -0.15522  -0.14799  -0.14147  -0.13419  -0.12612
 Alpha  occ. eigenvalues --   -0.00588
 Alpha virt. eigenvalues --    0.02476   0.05549   0.07204   0.07738   0.08386
 Alpha virt. eigenvalues --    0.09010   0.09758   0.10276   0.10508   0.11793
 Alpha virt. eigenvalues --    0.11969   0.12379   0.12814   0.13196   0.14347

  Beta  occ. eigenvalues --  -88.79200 -88.74999 -19.07570 -19.00787 -18.98612
  Beta  occ. eigenvalues --  -18.98550 -18.97215 -14.37455 -14.24590 -10.20548
  Beta  occ. eigenvalues --  -10.16269 -10.13354 -10.11846 -10.11351 -10.10870
  Beta  occ. eigenvalues --  -10.10382 -10.10300 -10.07823 -10.06570 -10.06029
  Beta  occ. eigenvalues --   -7.87814  -7.83607  -5.84119  -5.83750  -5.83354
  Beta  occ. eigenvalues --   -5.79928  -5.79561  -5.79075  -1.06170  -1.01263
  Beta  occ. eigenvalues --   -0.92963  -0.91808  -0.89066  -0.84357  -0.78882
  Beta  occ. eigenvalues --   -0.76847  -0.69960  -0.65533  -0.64974  -0.62233
  Beta  occ. eigenvalues --   -0.61492  -0.56749  -0.55729  -0.50964  -0.48937
  Beta  occ. eigenvalues --   -0.47959  -0.43760  -0.42122  -0.41566  -0.40523
  Beta  occ. eigenvalues --   -0.39161  -0.37749  -0.36820  -0.36136  -0.35792
  Beta  occ. eigenvalues --   -0.35370  -0.35124  -0.34035  -0.33367  -0.32255
  Beta  occ. eigenvalues --   -0.31548  -0.30339  -0.29168  -0.28946  -0.28665
  Beta  occ. eigenvalues --   -0.27029  -0.26508  -0.24909  -0.22911  -0.22692
  Beta  occ. eigenvalues --   -0.19428  -0.18492  -0.16015  -0.15823  -0.15313
  Beta  occ. eigenvalues --   -0.14983  -0.14241  -0.13829  -0.12700  -0.11516
  Beta virt. eigenvalues --    0.03320   0.05018   0.05544   0.07200   0.07745
  Beta virt. eigenvalues --    0.08793   0.09505   0.10098   0.10359   0.11016
  Beta virt. eigenvalues --    0.11886   0.11980   0.12420   0.12863   0.13200

 Mulliken charges and spin densities:
               1          2
     1  C   -0.548560   0.003594
     2  C    0.066834  -0.014934
     3  C   -0.227410   0.054800
     4  S   -0.312732   0.036531
     5  C    0.533684   0.080393
     6  C   -0.396843   0.042008
     7  N   -0.200238  -0.022867
     8  C   -0.683062   0.049577
     9  O   -0.335062   0.067876
    10  C    1.208377   0.072658
    11  C   -0.306058   0.009456
    12  C   -0.058568   0.086575
    13  C   -0.650411   0.000346
    14  S   -0.023492   0.124652
    15  N   -0.211266   0.119483
    16  O   -0.171296   0.113331
    17  O   -0.105515   0.124656
    18  C    0.161636   0.024859
    19  O   -0.254067   0.026009
    20  O   -0.137856   0.005033
    21  H    0.157811  -0.001410
    22  H    0.183177  -0.000440
    23  H    0.134851   0.000207
    24  H    0.218458  -0.004593
    25  H    0.312758   0.005527
    26  H    0.154606   0.001580
    27  H    0.213021  -0.004756
    28  H    0.277221  -0.000154
 Sum of Mulliken charges =  -1.00000   1.00000

 Dipole moment (field-independent basis, Debye):
    X=            -13.3854    Y=             -0.6801    Z=             -1.8622  Tot=             13.5314
 Quadrupole moment (field-independent basis, Debye-Ang):
   XX=           -198.2657   YY=           -148.4408   ZZ=           -140.4725
   XY=              0.8063   XZ=             10.8795   YZ=            -12.9719

 Summary of Natural Population Analysis:

                                       Natural Population
                Natural  -----------------------------------------------
    Atom  No    Charge         Core      Valence    Rydberg      Total
 -----------------------------------------------------------------------
      C    1   -0.29241      0.99963     2.28812    0.00466     3.29241
      C    2   -0.05688      0.99945     2.04908    0.00835     3.05688
      C    3   -0.17351      0.99948     2.16365    0.01038     3.17351
      S    4    0.23583      4.99945     2.74234    0.02237     7.76417
      C    5   -0.14956      0.99938     2.13927    0.01092     3.14956
      C    6    0.09161      0.99937     1.89363    0.01539     2.90839
      N    7   -0.32494      0.99963     2.81416    0.01114     3.82494
      C    8    0.34799      0.99958     1.63074    0.02169     2.65201
      O    9   -0.29269      0.99988     3.28706    0.00575     4.29269
      C   10   -0.10757      0.99946     2.09426    0.01385     3.10757
      C   11   -0.13008      0.99950     2.12195    0.00863     3.13008
      C   12   -0.10806      0.99949     2.09776    0.01081     3.10806
      C   13   -0.02946      0.99943     2.01529    0.01475     3.02946
      S   14    0.28825      4.99937     2.69032    0.02206     7.71175
      N   15    0.26598      0.99967     2.20611    0.02825     3.23402
      O   16   -0.19570      0.99990     3.18823    0.00757     4.19570
      O   17   -0.19363      0.99990     3.18617    0.00756     4.19363
      C   18    0.39257      0.99960     1.58349    0.02434     2.60743
      O   19   -0.29144      0.99987     3.28344    0.00813     4.29144
      O   20   -0.34858      0.99988     3.34316    0.00553     4.34858
      H   21    0.10087      0.00000     0.39816    0.00097     0.39913
      H   22    0.11001      0.00000     0.38896    0.00103     0.38999
      H   23    0.10122      0.00000     0.39798    0.00081     0.39878
      H   24    0.10501      0.00000     0.39412    0.00087     0.39499
      H   25    0.19680      0.00000     0.30164    0.00156     0.30320
      H   26    0.10536      0.00000     0.39325    0.00139     0.39464
      H   27    0.11321      0.00000     0.38551    0.00128     0.38679
      H   28    0.23981      0.00000     0.25745    0.00274     0.26019
 =======================================================================
   * Total *   -0.00000     27.99192    51.73530    0.27279    80.00000

 Normal termination of Gaussian 16 at Sat Dec 12 16:04:14 2020.
