 Gaussian 16, Revision A.03,

 -----------------------------------------------------------
 # opt freq B3LYP/6-31G(d) empiricaldispersion=gd3bj scf=xqc
 -----------------------------------------------------------

 ------------------------------
 CID_14031466_JID_3249_neutraal
 ------------------------------
 Symbolic Z-matrix:
 Charge =  0 Multiplicity = 1

 SCF Done:  E(RB3LYP) =  -544.510944341     A.U. after   14 cycles
 SCF Done:  E(RB3LYP) =  -544.513002047     A.U. after   12 cycles
 SCF Done:  E(RB3LYP) =  -544.511317405     A.U. after   13 cycles
 SCF Done:  E(RB3LYP) =  -544.513345677     A.U. after   11 cycles
 SCF Done:  E(RB3LYP) =  -544.513028534     A.U. after   12 cycles
 SCF Done:  E(RB3LYP) =  -544.513420348     A.U. after   11 cycles
 SCF Done:  E(RB3LYP) =  -544.513423340     A.U. after    9 cycles
 SCF Done:  E(RB3LYP) =  -544.513425769     A.U. after    9 cycles
 SCF Done:  E(RB3LYP) =  -544.513426752     A.U. after    9 cycles
 SCF Done:  E(RB3LYP) =  -544.513428447     A.U. after   10 cycles
 SCF Done:  E(RB3LYP) =  -544.513446131     A.U. after   11 cycles
 SCF Done:  E(RB3LYP) =  -544.513445872     A.U. after   10 cycles
 SCF Done:  E(RB3LYP) =  -544.513446449     A.U. after   10 cycles
 SCF Done:  E(RB3LYP) =  -544.513446469     A.U. after   10 cycles
 SCF Done:  E(RB3LYP) =  -544.513446565     A.U. after   10 cycles
 Optimization completed.
    -- Stationary point found.
 Normal termination of Gaussian 16 at Wed Dec  9 22:36:43 2020.

 --------------------------------------------------------------------
 #N Geom=AllCheck Guess=TCheck SCRF=Check GenChk RB3LYP/6-31G(d) Freq
 --------------------------------------------------------------------

 Structure from the checkpoint file:  "JID_3249.chk"
 ------------------------------
 CID_14031466_JID_3249_neutraal
 ------------------------------
 Charge =  0 Multiplicity = 1

 SCF Done:  E(RB3LYP) =  -544.513446565     A.U. after    1 cycles

  Exact polarizability: 183.541  26.259 128.410  -2.113  -5.154  94.120
 Approx polarizability: 226.188  49.058 199.668  -5.749 -12.985 137.511

                      1                      2                      3
                      A                      A                      A
 Frequencies --      8.9733                23.0253                38.9597
 Red. masses --      2.1990                 4.6134                 3.1879
 Frc consts  --      0.0001                 0.0014                 0.0029
 IR Inten    --      0.0575                 0.1316                 0.0307

                      4                      5                      6
                      A                      A                      A
 Frequencies --     55.8216                66.5000                84.6514
 Red. masses --      4.3404                 4.0100                 4.2440
 Frc consts  --      0.0080                 0.0104                 0.0179
 IR Inten    --      0.5681                 1.7013                 2.2242

                      7                      8                      9
                      A                      A                      A
 Frequencies --    128.3104               152.8092               172.2301
 Red. masses --      3.2634                 2.7203                 1.6763
 Frc consts  --      0.0317                 0.0374                 0.0293
 IR Inten    --      0.8450                 3.0171                 0.9140

                     10                     11                     12
                      A                      A                      A
 Frequencies --    203.2448               238.5310               258.9552
 Red. masses --      2.7069                 2.4370                 2.2212
 Frc consts  --      0.0659                 0.0817                 0.0878
 IR Inten    --      3.9100                 3.4449                13.1436

                     13                     14                     15
                      A                      A                      A
 Frequencies --    279.9315               310.8677               319.6275
 Red. masses --      1.3121                 1.7087                 1.8552
 Frc consts  --      0.0606                 0.0973                 0.1117
 IR Inten    --      7.0004                41.1460                10.1730

                     16                     17                     18
                      A                      A                      A
 Frequencies --    330.5762               378.2278               419.2454
 Red. masses --      1.8247                 2.3712                 2.4770
 Frc consts  --      0.1175                 0.1999                 0.2565
 IR Inten    --     50.1419                 0.5595                 4.4594

                     19                     20                     21
                      A                      A                      A
 Frequencies --    463.7225               475.2646               512.8595
 Red. masses --      3.1995                 2.9663                 3.2117
 Frc consts  --      0.4054                 0.3948                 0.4977
 IR Inten    --      2.7914                 0.7395                 0.0741

                     22                     23                     24
                      A                      A                      A
 Frequencies --    549.2403               603.0198               715.8871
 Red. masses --      2.6780                 3.3327                 1.3513
 Frc consts  --      0.4760                 0.7140                 0.4080
 IR Inten    --      1.5017                 0.8397                14.9099

                     25                     26                     27
                      A                      A                      A
 Frequencies --    751.7397               761.4158               801.3543
 Red. masses --      1.3494                 1.8079                 3.1598
 Frc consts  --      0.4493                 0.6175                 1.1955
 IR Inten    --      1.9445                 3.4863                 0.5717

                     28                     29                     30
                      A                      A                      A
 Frequencies --    847.8071               858.3639               862.7675
 Red. masses --      2.0904                 1.5226                 2.1185
 Frc consts  --      0.8853                 0.6610                 0.9291
 IR Inten    --      5.7967                 1.8458                 3.2058

                     31                     32                     33
                      A                      A                      A
 Frequencies --    900.7904               930.1393               958.8547
 Red. masses --      3.0235                 1.8690                 1.9184
 Frc consts  --      1.4455                 0.9527                 1.0392
 IR Inten    --      2.4685                 8.6453                 2.6206

                     34                     35                     36
                      A                      A                      A
 Frequencies --   1000.1502              1011.6917              1016.9407
 Red. masses --      1.0717                 1.7694                 1.6319
 Frc consts  --      0.6316                 1.0670                 0.9944
 IR Inten    --     24.0332                23.5083                 1.8858

                     37                     38                     39
                      A                      A                      A
 Frequencies --   1038.1594              1057.4016              1095.7957
 Red. masses --      1.4401                 1.7234                 2.5092
 Frc consts  --      0.9145                 1.1353                 1.7752
 IR Inten    --      0.8953                 4.1833                78.6996

                     40                     41                     42
                      A                      A                      A
 Frequencies --   1114.8561              1114.9072              1121.1503
 Red. masses --      1.5637                 2.4362                 2.4986
 Frc consts  --      1.1451                 1.7842                 1.8505
 IR Inten    --      1.1161                 4.8860                 2.6793

                     43                     44                     45
                      A                      A                      A
 Frequencies --   1124.1341              1168.0556              1191.6370
 Red. masses --      2.0483                 1.1930                 1.2533
 Frc consts  --      1.5250                 0.9590                 1.0485
 IR Inten    --      1.1628                13.1791                 0.9690

                     46                     47                     48
                      A                      A                      A
 Frequencies --   1212.9835              1243.6183              1260.0526
 Red. masses --      2.4372                 1.2276                 1.2966
 Frc consts  --      2.1127                 1.1187                 1.2130
 IR Inten    --      1.3745                 5.9632                 6.3787

                     49                     50                     51
                      A                      A                      A
 Frequencies --   1302.6555              1309.7175              1320.6742
 Red. masses --      1.1584                 1.2115                 1.4545
 Frc consts  --      1.1581                 1.2245                 1.4947
 IR Inten    --      0.1025                 3.7757                 2.1934

                     52                     53                     54
                      A                      A                      A
 Frequencies --   1344.7020              1347.6787              1368.6278
 Red. masses --      1.1291                 1.2979                 1.4984
 Frc consts  --      1.2029                 1.3889                 1.6537
 IR Inten    --      0.0946                 0.4299                22.0722

                     55                     56                     57
                      A                      A                      A
 Frequencies --   1381.9998              1397.7191              1399.2194
 Red. masses --      1.3607                 1.5197                 1.5189
 Frc consts  --      1.5312                 1.7493                 1.7520
 IR Inten    --     14.5518                38.5112                 0.1988

                     58                     59                     60
                      A                      A                      A
 Frequencies --   1407.7054              1414.4828              1425.2407
 Red. masses --      1.2092                 1.3351                 1.4526
 Frc consts  --      1.4118                 1.5738                 1.7385
 IR Inten    --     20.5261                 5.7998                 3.7762

                     61                     62                     63
                      A                      A                      A
 Frequencies --   1442.2950              1442.5858              1501.6868
 Red. masses --      1.2885                 1.2978                 1.0822
 Frc consts  --      1.5792                 1.5913                 1.4379
 IR Inten    --     28.0910                18.5401                 4.9711

                     64                     65                     66
                      A                      A                      A
 Frequencies --   1503.5888              1507.9258              1517.8152
 Red. masses --      1.0818                 1.0958                 1.0855
 Frc consts  --      1.4409                 1.4680                 1.4734
 IR Inten    --      3.0432                 3.1932                 7.4942

                     67                     68                     69
                      A                      A                      A
 Frequencies --   1525.5165              1529.0338              1538.9329
 Red. masses --      1.0843                 1.0401                 1.0521
 Frc consts  --      1.4868                 1.4327                 1.4681
 IR Inten    --      4.3050                 6.0800                 4.9615

                     70                     71                     72
                      A                      A                      A
 Frequencies --   1540.2518              1541.9816              1714.7533
 Red. masses --      1.0835                 1.0911                 5.5507
 Frc consts  --      1.5144                 1.5285                 9.6161
 IR Inten    --      5.5090                 2.7664                 1.8452

                     73                     74                     75
                      A                      A                      A
 Frequencies --   2342.3687              2999.4826              3010.7364
 Red. masses --     11.8634                 1.0719                 1.0606
 Frc consts  --     38.3505                 5.6820                 5.6641
 IR Inten    --      0.6974                48.8249                34.5280

                     76                     77                     78
                      A                      A                      A
 Frequencies --   3028.6016              3029.3370              3030.4602
 Red. masses --      1.1001                 1.0612                 1.0673
 Frc consts  --      5.9454                 5.7378                 5.7749
 IR Inten    --     18.7749                40.3880                21.6912

                     79                     80                     81
                      A                      A                      A
 Frequencies --   3037.2194              3039.4467              3050.4259
 Red. masses --      1.0665                 1.0627                 1.0725
 Frc consts  --      5.7964                 5.7844                 5.8796
 IR Inten    --      4.5844                29.3305                26.4007

                     82                     83                     84
                      A                      A                      A
 Frequencies --   3053.1712              3060.8873              3075.3737
 Red. masses --      1.0355                 1.0894                 1.0939
 Frc consts  --      5.6872                 6.0134                 6.0956
 IR Inten    --     21.1822                32.0804                11.0784

                     85                     86                     87
                      A                      A                      A
 Frequencies --   3081.6270              3085.6788              3094.7674
 Red. masses --      1.0974                 1.1002                 1.1014
 Frc consts  --      6.1402                 6.1719                 6.2149
 IR Inten    --     67.6271                51.1900                85.8391

                     88                     89                     90
                      A                      A                      A
 Frequencies --   3102.1895              3119.2692              3124.1387
 Red. masses --      1.0943                 1.1027                 1.1023
 Frc consts  --      6.2047                 6.3213                 6.3389
 IR Inten    --     38.8144                33.1466                38.9117

                     91                     92                     93
                      A                      A                      A
 Frequencies --   3160.5032              3168.3690              3753.2782
 Red. masses --      1.0910                 1.0849                 1.0659
 Frc consts  --      6.4206                 6.4165                 8.8472
 IR Inten    --      5.8706                30.4025                 6.4837

 - Thermochemistry -
 -------------------
 Temperature   298.150 Kelvin.  Pressure   1.00000 Atm.
 Atom     1 has atomic number  6 and mass  12.00000

 Molecular mass:   180.15142 amu.
 Principal axes and moments of inertia in atomic units:
                           1         2         3
     Eigenvalues --  1137.998577994.272138705.22987
           X            0.99993   0.01192   0.00005
           Y           -0.01192   0.99993  -0.00179
           Z           -0.00007   0.00179   1.00000
 This molecule is an asymmetric top.
 Rotational symmetry number  1.
 Warning -- assumption of classical behavior for rotation
           may cause significant error
 Rotational temperatures (Kelvin)      0.07611     0.01083     0.00995
 Rotational constants (GHZ):           1.58589     0.22575     0.20732
 Zero-point vibrational energy     780021.3 (Joules/Mol)
                                  186.42956 (Kcal/Mol)
 Warning -- explicit consideration of  23 degrees of freedom as
           vibrations may cause significant error
 Vibrational temperatures:     12.91    33.13    56.05    80.31    95.68
          (Kelvin)            121.79   184.61   219.86   247.80   292.42
                              343.19   372.58   402.76   447.27   459.87
                              475.63   544.19   603.20   667.19   683.80
                              737.89   790.23   867.61  1030.00  1081.59
                             1095.51  1152.97  1219.81  1234.99  1241.33
                             1296.04  1338.26  1379.58  1438.99  1455.60
                             1463.15  1493.68  1521.37  1576.61  1604.03
                             1604.10  1613.09  1617.38  1680.57  1714.50
                             1745.21  1789.29  1812.93  1874.23  1884.39
                             1900.16  1934.73  1939.01  1969.15  1988.39
                             2011.01  2013.16  2025.37  2035.13  2050.60
                             2075.14  2075.56  2160.59  2163.33  2169.57
                             2183.80  2194.88  2199.94  2214.18  2216.08
                             2218.57  2467.15  3370.15  4315.59  4331.78
                             4357.48  4358.54  4360.16  4369.88  4373.09
                             4388.88  4392.83  4403.93  4424.78  4433.77
                             4439.60  4452.68  4463.36  4487.93  4494.94
                             4547.26  4558.58  5400.13

 Zero-point correction=                           0.297094 (Hartree/Particle)
 Thermal correction to Energy=                    0.312989
 Thermal correction to Enthalpy=                  0.313933
 Thermal correction to Gibbs Free Energy=         0.250269
 Sum of electronic and zero-point Energies=           -544.216352
 Sum of electronic and thermal Energies=              -544.200458
 Sum of electronic and thermal Enthalpies=            -544.199514
 Sum of electronic and thermal Free Energies=         -544.263178

                     E (Thermal)             CV                S
                      KCal/Mol        Cal/Mol-Kelvin    Cal/Mol-Kelvin
 Total                  196.403             56.788            133.992
 Electronic               0.000              0.000              0.000
 Translational            0.889              2.981             41.473
 Rotational               0.889              2.981             32.738
 Vibrational            194.626             50.826             59.782
 Vibration     1          0.593              1.987              8.226
 Vibration     2          0.593              1.985              6.355
 Vibration     3          0.594              1.981              5.311
 Vibration     4          0.596              1.975              4.600
 Vibration     5          0.598              1.970              4.254
 Vibration     6          0.601              1.960              3.780
 Vibration     7          0.611              1.925              2.971
 Vibration     8          0.619              1.900              2.637
 Vibration     9          0.626              1.877              2.411
 Vibration    10          0.639              1.835              2.104
 Vibration    11          0.657              1.782              1.814
 Vibration    12          0.668              1.748              1.669
 Vibration    13          0.680              1.711              1.534
 Vibration    14          0.700              1.653              1.358
 Vibration    15          0.706              1.636              1.312
 Vibration    16          0.713              1.614              1.257
 Vibration    17          0.749              1.517              1.046
 Vibration    18          0.782              1.428              0.895
 Vibration    19          0.821              1.331              0.755
 Vibration    20          0.832              1.305              0.723
 Vibration    21          0.868              1.222              0.627
 Vibration    22          0.905              1.141              0.546
 Vibration    23          0.961              1.025              0.444

                           ! Non-Optimized Parameters !
 Normal termination of Gaussian 16 at Wed Dec  9 22:44:15 2020.

 ----------------------------------------------------------------------
 # B3LYP/6-311++G(d,p) empiricaldispersion=gd3bj scf=xqc pop=npa geom=c
 heck
 ----------------------------------------------------------------------

 --------------------------------------
 CID_14031466_JID_3249_Energie_neutraal
 --------------------------------------
 Structure from the checkpoint file:  "JID_3249.chk"
 Charge =  0 Multiplicity = 1

 SCF Done:  E(RB3LYP) =  -544.678387828     A.U. after   14 cycles
 Normal termination of Gaussian 16 at Wed Dec  9 22:48:23 2020.

 ----------------------------------------------------------------------
 # B3LYP/6-311++G(d,p) empiricaldispersion=gd3bj scf=xqc pop=npa geom=c
 heck
 ----------------------------------------------------------------------

 ------------------------------------
 CID_14031466_JID_3249_Energie_kation
 ------------------------------------
 Structure from the checkpoint file:  "JID_3249.chk"
 Charge =  1 Multiplicity = 2

 SCF Done:  E(UB3LYP) =  -544.379108423     A.U. after   25 cycles
 Normal termination of Gaussian 16 at Wed Dec  9 22:58:39 2020.
 Gaussian 16:  ES64L-G16RevA.03 25-Dec-2016

 ----------------------------------------------------------------------
 # B3LYP/6-311++G(d,p) empiricaldispersion=gd3bj scf=xqc pop=npa geom=c
 heck
 ----------------------------------------------------------------------

 -----------------------------------
 CID_14031466_JID_3249_Energie_anion
 -----------------------------------
 Structure from the checkpoint file:  "JID_3249.chk"
 Charge = -1 Multiplicity = 2

                         Standard orientation:
 ---------------------------------------------------------------------
 Center     Atomic      Atomic             Coordinates (Angstroms)
 Number     Number       Type             X           Y           Z
 ---------------------------------------------------------------------
      1          6           0       -5.942353   -0.505799   -0.222638
      2          6           0       -4.785602   -1.414821    0.193802
      3          6           0       -3.420804   -0.786227    0.179161
      4          6           0       -3.139344    0.483388   -0.161675
      5          6           0       -1.827933    1.033920   -0.158828
      6          6           0       -0.726336    1.542949   -0.172242
      7          6           0        0.627983    2.091548   -0.154801
      8          6           0        1.528615    1.442300    0.919810
      9          6           0        1.610054   -0.086898    0.825824
     10          6           0        2.076000   -0.630158   -0.534708
     11          6           0        3.446712   -0.126184   -1.012448
     12          6           0        4.592934   -0.421856   -0.042012
     13          8           0        4.753979   -1.811650    0.224969
     14          1           0       -6.023168    0.363427    0.439485
     15          1           0       -6.892198   -1.048528   -0.181411
     16          1           0       -5.810004   -0.137613   -1.246063
     17          1           0       -4.973737   -1.810404    1.203908
     18          1           0       -4.764128   -2.303837   -0.455291
     19          1           0       -2.596537   -1.434347    0.475143
     20          1           0       -3.943436    1.153445   -0.461584
     21          1           0        1.086369    1.962698   -1.145131
     22          1           0        0.588320    3.175276    0.018386
     23          1           0        2.528539    1.885599    0.834570
     24          1           0        1.146971    1.716164    1.910443
     25          1           0        2.274389   -0.445650    1.624287
     26          1           0        0.619020   -0.502770    1.042254
     27          1           0        2.100449   -1.727401   -0.486646
     28          1           0        1.322102   -0.391984   -1.294467
     29          1           0        3.678205   -0.593618   -1.977395
     30          1           0        3.414336    0.958113   -1.187360
     31          1           0        5.542453   -0.096802   -0.478827
     32          1           0        4.458579    0.143528    0.894003
     33          1           0        3.972091   -2.105069    0.716476
 ---------------------------------------------------------------------

 SCF Done:  E(UB3LYP) =  -544.665417396     A.U. after   33 cycles
 SCF Done:  E(UB3LYP) =  -544.665417396     a.u. after    1 cycles

 The electronic state is 2-A.
 Alpha  occ. eigenvalues --  -19.03010 -10.12199 -10.09841 -10.08976 -10.08451
 Alpha  occ. eigenvalues --  -10.08361 -10.07824 -10.07476 -10.07303 -10.07076
 Alpha  occ. eigenvalues --  -10.07002 -10.06903 -10.06621  -0.93053  -0.72909
 Alpha  occ. eigenvalues --   -0.72104  -0.68994  -0.66520  -0.63438  -0.60697
 Alpha  occ. eigenvalues --   -0.57319  -0.55337  -0.51775  -0.47178  -0.46084
 Alpha  occ. eigenvalues --   -0.42079  -0.41258  -0.39241  -0.38224  -0.36234
 Alpha  occ. eigenvalues --   -0.35962  -0.34722  -0.34573  -0.33025  -0.32386
 Alpha  occ. eigenvalues --   -0.31620  -0.28950  -0.28377  -0.27937  -0.26841
 Alpha  occ. eigenvalues --   -0.26648  -0.25661  -0.24794  -0.23906  -0.23392
 Alpha  occ. eigenvalues --   -0.22514  -0.22136  -0.18432  -0.16502  -0.13222
 Alpha  occ. eigenvalues --    0.04162
 Alpha virt. eigenvalues --    0.05530   0.06482   0.06944   0.07372   0.07702
 Alpha virt. eigenvalues --    0.07821   0.08851   0.09034   0.09898   0.10170
 Alpha virt. eigenvalues --    0.10471   0.10894   0.11416   0.11871   0.12392

  Beta  occ. eigenvalues --  -19.02983 -10.12178 -10.09823 -10.08965 -10.08416
  Beta  occ. eigenvalues --  -10.08340 -10.07804 -10.07462 -10.07291 -10.07044
  Beta  occ. eigenvalues --  -10.06978 -10.06894 -10.06613  -0.92994  -0.72869
  Beta  occ. eigenvalues --   -0.72052  -0.68955  -0.66477  -0.63389  -0.60648
  Beta  occ. eigenvalues --   -0.57258  -0.55268  -0.51714  -0.47108  -0.46018
  Beta  occ. eigenvalues --   -0.42026  -0.41212  -0.39201  -0.38173  -0.36186
  Beta  occ. eigenvalues --   -0.35918  -0.34686  -0.34535  -0.32989  -0.32349
  Beta  occ. eigenvalues --   -0.31570  -0.28916  -0.28338  -0.27909  -0.26790
  Beta  occ. eigenvalues --   -0.26588  -0.25614  -0.24763  -0.23866  -0.23349
  Beta  occ. eigenvalues --   -0.22485  -0.22069  -0.18392  -0.16479  -0.13120
  Beta virt. eigenvalues --    0.06133   0.06491   0.07104   0.07218   0.07646
  Beta virt. eigenvalues --    0.07993   0.08105   0.09218   0.09474   0.10068
  Beta virt. eigenvalues --    0.10455   0.10824   0.11163   0.11596   0.12061

 Mulliken charges and spin densities:
               1          2
     1  C    0.080086  -0.544352
     2  C    0.551751  -1.171231
     3  C   -0.023580   0.410839
     4  C   -0.893197   0.227464
     5  C    0.546329  -0.273067
     6  C   -0.375167   0.415164
     7  C    0.856131  -1.241795
     8  C    0.063555  -0.485378
     9  C    0.081711   0.116449
    10  C    0.041829  -0.566543
    11  C   -0.410929   0.210311
    12  C    0.635551  -1.158912
    13  O   -0.283018   0.043507
    14  H    0.018401   0.114676
    15  H   -0.662102   0.829817
    16  H    0.027844   0.107658
    17  H   -0.061301   0.193929
    18  H   -0.163138   0.301498
    19  H   -0.169428   0.367271
    20  H   -0.049775   0.205598
    21  H   -0.031341   0.176436
    22  H   -0.080747   0.263109
    23  H   -0.116248   0.280024
    24  H   -0.035144   0.190665
    25  H   -0.436949   0.591078
    26  H   -0.067391   0.193794
    27  H    0.013839   0.152341
    28  H    0.059760   0.071568
    29  H    0.033848   0.135734
    30  H   -0.026839   0.141756
    31  H   -0.033585   0.198732
    32  H   -0.111157   0.273534
    33  H    0.020400   0.228325
 Sum of Mulliken charges =  -1.00000   1.00000

 Dipole moment (field-independent basis, Debye):
    X=              2.7764    Y=              2.5552    Z=             -1.3735  Tot=              4.0155
 Quadrupole moment (field-independent basis, Debye-Ang):
   XX=           -212.3988   YY=           -121.6317   ZZ=           -112.3581
   XY=             -5.6909   XZ=             -5.4179   YZ=             -0.5180

 Summary of Natural Population Analysis:

                                       Natural Population
                Natural  -----------------------------------------------
    Atom  No    Charge         Core      Valence    Rydberg      Total
 -----------------------------------------------------------------------
      C    1   -0.29018      0.99967     2.28458    0.00593     3.29018
      C    2   -0.20881      0.99963     2.20114    0.00804     3.20881
      C    3   -0.05244      0.99954     2.04322    0.00968     3.05244
      C    4   -0.15749      0.99950     2.14436    0.01363     3.15749
      C    5    0.01829      0.99926     1.97303    0.00942     2.98171
      C    6   -0.01871      0.99934     2.00875    0.01061     3.01871
      C    7   -0.22763      0.99957     2.21918    0.00888     3.22763
      C    8   -0.18328      0.99962     2.17423    0.00943     3.18328
      C    9   -0.19703      0.99962     2.18708    0.01032     3.19703
      C   10   -0.19708      0.99962     2.18914    0.00832     3.19708
      C   11   -0.20431      0.99962     2.19728    0.00741     3.20431
      C   12   -0.00997      0.99960     1.99841    0.01196     3.00997
      O   13   -0.37093      0.99990     3.36410    0.00693     4.37093
      H   14    0.09706      0.00000     0.40173    0.00121     0.40294
      H   15    0.10341      0.00000     0.39510    0.00148     0.39659
      H   16    0.09748      0.00000     0.40131    0.00121     0.40252
      H   17    0.10240      0.00000     0.39623    0.00137     0.39760
      H   18    0.10412      0.00000     0.39399    0.00189     0.39588
      H   19    0.09543      0.00000     0.40313    0.00144     0.40457
      H   20    0.10392      0.00000     0.39442    0.00166     0.39608
      H   21    0.10840      0.00000     0.39003    0.00157     0.39160
      H   22    0.11085      0.00000     0.38773    0.00142     0.38915
      H   23    0.09584      0.00000     0.40262    0.00154     0.40416
      H   24    0.10012      0.00000     0.39858    0.00131     0.39988
      H   25    0.09572      0.00000     0.40262    0.00166     0.40428
      H   26    0.10511      0.00000     0.39326    0.00163     0.39489
      H   27    0.09688      0.00000     0.40168    0.00143     0.40312
      H   28    0.10151      0.00000     0.39701    0.00148     0.39849
      H   29    0.09810      0.00000     0.40069    0.00121     0.40190
      H   30    0.09710      0.00000     0.40144    0.00147     0.40290
      H   31    0.08418      0.00000     0.41442    0.00140     0.41582
      H   32    0.07650      0.00000     0.42184    0.00166     0.42350
      H   33    0.22876      0.00000     0.26776    0.00348     0.27124
 =======================================================================
   * Total *    0.00332     12.99450    36.85009    0.15209    49.99668

 Normal termination of Gaussian 16 at Wed Dec  9 23:12:16 2020.
