 Gaussian 16, Revision A.03,

 -----------------------------------------------------------
 # opt freq B3LYP/6-31G(d) empiricaldispersion=gd3bj scf=xqc
 -----------------------------------------------------------

 -------------------------------
 CID_105474896_JID_6836_neutraal
 -------------------------------
 Symbolic Z-matrix:
 Charge =  0 Multiplicity = 1

 SCF Done:  E(RB3LYP) =  -672.253617778     A.U. after   14 cycles
 SCF Done:  E(RB3LYP) =  -672.262682587     A.U. after   12 cycles
 SCF Done:  E(RB3LYP) =  -672.261254803     A.U. after   12 cycles
 SCF Done:  E(RB3LYP) =  -672.264084865     A.U. after   12 cycles
 SCF Done:  E(RB3LYP) =  -672.267994381     A.U. after   12 cycles
 SCF Done:  E(RB3LYP) =  -672.270243632     A.U. after   12 cycles
 SCF Done:  E(RB3LYP) =  -672.270616976     A.U. after   12 cycles
 SCF Done:  E(RB3LYP) =  -672.271089221     A.U. after   11 cycles
 SCF Done:  E(RB3LYP) =  -672.271413865     A.U. after   11 cycles
 SCF Done:  E(RB3LYP) =  -672.271500144     A.U. after   11 cycles
 SCF Done:  E(RB3LYP) =  -672.271540719     A.U. after   10 cycles
 SCF Done:  E(RB3LYP) =  -672.271551352     A.U. after    9 cycles
 SCF Done:  E(RB3LYP) =  -672.271554191     A.U. after    8 cycles
 SCF Done:  E(RB3LYP) =  -672.271554699     A.U. after    7 cycles
 SCF Done:  E(RB3LYP) =  -672.271554853     A.U. after    7 cycles
 Optimization completed.
    -- Stationary point found.
 Normal termination of Gaussian 16 at Fri Dec 11 00:57:08 2020.

 --------------------------------------------------------------------
 #N Geom=AllCheck Guess=TCheck SCRF=Check GenChk RB3LYP/6-31G(d) Freq
 --------------------------------------------------------------------

 Structure from the checkpoint file:  "JID_6836.chk"
 -------------------------------
 CID_105474896_JID_6836_neutraal
 -------------------------------
 Charge =  0 Multiplicity = 1

 SCF Done:  E(RB3LYP) =  -672.271554853     A.U. after    1 cycles

  Exact polarizability: 178.211  -3.622 151.345  -0.276   2.749 113.259
 Approx polarizability: 236.937  -3.793 232.663   0.492   6.937 173.652

                      1                      2                      3
                      A                      A                      A
 Frequencies --     45.7173                53.6909                77.5004
 Red. masses --      2.9280                 3.7330                 3.2807
 Frc consts  --      0.0036                 0.0063                 0.0116
 IR Inten    --      0.0337                 0.1845                 0.0803

                      4                      5                      6
                      A                      A                      A
 Frequencies --    106.7492               143.8774               152.5435
 Red. masses --      2.4967                 3.7573                 4.1110
 Frc consts  --      0.0168                 0.0458                 0.0564
 IR Inten    --      0.2255                 0.2676                 0.9887

                      7                      8                      9
                      A                      A                      A
 Frequencies --    165.2837               176.9135               224.3713
 Red. masses --      3.4218                 2.5011                 1.2741
 Frc consts  --      0.0551                 0.0461                 0.0378
 IR Inten    --      0.8221                 0.6011                 0.1678

                     10                     11                     12
                      A                      A                      A
 Frequencies --    253.1421               263.8690               276.1420
 Red. masses --      3.1295                 1.3902                 1.0908
 Frc consts  --      0.1182                 0.0570                 0.0490
 IR Inten    --      0.3255                14.7834                 3.4353

                     13                     14                     15
                      A                      A                      A
 Frequencies --    286.4638               297.5222               314.9378
 Red. masses --      1.3558                 1.7789                 2.4161
 Frc consts  --      0.0656                 0.0928                 0.1412
 IR Inten    --      9.0764                 1.5537                 1.4437

                     16                     17                     18
                      A                      A                      A
 Frequencies --    323.9090               363.6845               372.7877
 Red. masses --      2.1734                 2.3051                 2.4045
 Frc consts  --      0.1344                 0.1796                 0.1969
 IR Inten    --      3.9527                 7.9696                 1.6925

                     19                     20                     21
                      A                      A                      A
 Frequencies --    404.7353               418.8943               430.7884
 Red. masses --      2.6035                 2.6838                 3.1774
 Frc consts  --      0.2513                 0.2775                 0.3474
 IR Inten    --      3.0741                 1.3329                 4.7277

                     22                     23                     24
                      A                      A                      A
 Frequencies --    475.5473               501.8299               532.2723
 Red. masses --      3.3019                 3.5244                 3.2026
 Frc consts  --      0.4399                 0.5229                 0.5346
 IR Inten    --      2.9378                 3.1469                 5.4065

                     25                     26                     27
                      A                      A                      A
 Frequencies --    577.8024               635.2926               668.3866
 Red. masses --      3.2160                 3.7670                 4.7077
 Frc consts  --      0.6326                 0.8958                 1.2391
 IR Inten    --      3.2292                 5.1698                 6.4793

                     28                     29                     30
                      A                      A                      A
 Frequencies --    688.6763               736.9146               805.0713
 Red. masses --      4.7307                 3.5262                 1.0559
 Frc consts  --      1.3219                 1.1282                 0.4032
 IR Inten    --      3.2999                 5.1824                 0.3676

                     31                     32                     33
                      A                      A                      A
 Frequencies --    815.8030               836.3579               848.8777
 Red. masses --      1.1058                 2.5358                 1.3236
 Frc consts  --      0.4336                 1.0451                 0.5620
 IR Inten    --      0.2438                 3.5048                 7.4464

                     34                     35                     36
                      A                      A                      A
 Frequencies --    862.3170               871.2628               901.3083
 Red. masses --      1.4126                 2.1673                 3.2058
 Frc consts  --      0.6189                 0.9693                 1.5344
 IR Inten    --     15.8514                20.3013                15.4734

                     37                     38                     39
                      A                      A                      A
 Frequencies --    910.9034               926.5120               937.1093
 Red. masses --      1.9361                 3.3470                 3.7630
 Frc consts  --      0.9465                 1.6928                 1.9470
 IR Inten    --    151.4005                12.9510                 9.8640

                     40                     41                     42
                      A                      A                      A
 Frequencies --    940.3486               949.1916               952.1776
 Red. masses --      1.8121                 1.6607                 1.2827
 Frc consts  --      0.9441                 0.8816                 0.6852
 IR Inten    --      0.4420                 0.7323                 1.7985

                     43                     44                     45
                      A                      A                      A
 Frequencies --    982.5276              1014.1840              1037.3152
 Red. masses --      1.1982                 2.7705                 1.6013
 Frc consts  --      0.6815                 1.6790                 1.0152
 IR Inten    --      0.1598                63.4331                15.1659

                     46                     47                     48
                      A                      A                      A
 Frequencies --   1063.4613              1066.0818              1070.7677
 Red. masses --      1.5554                 1.3942                 1.7686
 Frc consts  --      1.0364                 0.9336                 1.1948
 IR Inten    --      1.1450                 2.1100                20.3361

                     49                     50                     51
                      A                      A                      A
 Frequencies --   1072.8225              1088.9445              1090.2961
 Red. masses --      1.3061                 1.4886                 1.6565
 Frc consts  --      0.8857                 1.0400                 1.1602
 IR Inten    --     12.3482                 4.1752                 2.8355

                     52                     53                     54
                      A                      A                      A
 Frequencies --   1100.2576              1149.6163              1155.0110
 Red. masses --      1.3340                 1.4819                 1.3199
 Frc consts  --      0.9515                 1.1539                 1.0375
 IR Inten    --      6.6595                 5.3010                 0.9275

                     55                     56                     57
                      A                      A                      A
 Frequencies --   1193.7301              1209.0485              1218.4838
 Red. masses --      2.1362                 1.4346                 1.3875
 Frc consts  --      1.7935                 1.2356                 1.2138
 IR Inten    --      2.8803                 1.4666                 0.3413

                     58                     59                     60
                      A                      A                      A
 Frequencies --   1223.8845              1238.7698              1261.3082
 Red. masses --      2.3548                 2.2540                 2.3980
 Frc consts  --      2.0782                 2.0379                 2.2478
 IR Inten    --     13.3117                17.0388                36.2965

                     61                     62                     63
                      A                      A                      A
 Frequencies --   1271.4538              1288.0485              1295.3096
 Red. masses --      2.6375                 2.5399                 1.3964
 Frc consts  --      2.5121                 2.4828                 1.3804
 IR Inten    --     15.8237                35.7741                 3.5141

                     64                     65                     66
                      A                      A                      A
 Frequencies --   1308.6455              1340.4477              1371.5695
 Red. masses --      3.8008                 2.9909                 4.5693
 Frc consts  --      3.8350                 3.1663                 5.0645
 IR Inten    --     19.3885                 5.1564                49.1030

                     67                     68                     69
                      A                      A                      A
 Frequencies --   1405.4199              1424.5787              1428.6988
 Red. masses --      1.9894                 1.2584                 1.2941
 Frc consts  --      2.3151                 1.5047                 1.5563
 IR Inten    --     43.7303                 9.4986                 5.0987

                     70                     71                     72
                      A                      A                      A
 Frequencies --   1440.9281              1458.2555              1475.3251
 Red. masses --      5.3315                 1.2264                 1.0994
 Frc consts  --      6.5221                 1.5366                 1.4099
 IR Inten    --      2.5232                 8.6885                 1.8057

                     73                     74                     75
                      A                      A                      A
 Frequencies --   1493.9178              1504.0815              1508.6126
 Red. masses --      1.0910                 1.0585                 3.2409
 Frc consts  --      1.4347                 1.4108                 4.3458
 IR Inten    --      0.7946                 0.2345                12.8975

                     76                     77                     78
                      A                      A                      A
 Frequencies --   1517.7499              1519.4794              1520.6667
 Red. masses --      1.0699                 1.4130                 1.0710
 Frc consts  --      1.4521                 1.9221                 1.4592
 IR Inten    --      0.8406                 4.9975                 3.2291

                     79                     80                     81
                      A                      A                      A
 Frequencies --   1529.4789              1534.0172              1538.6206
 Red. masses --      1.0692                 1.3946                 1.0868
 Frc consts  --      1.4737                 1.9336                 1.5158
 IR Inten    --      3.1156                 2.9897                 0.8961

                     82                     83                     84
                      A                      A                      A
 Frequencies --   1555.5468              1597.7004              1700.6701
 Red. masses --      1.0579                 7.0621                 1.1043
 Frc consts  --      1.5083                10.6212                 1.8819
 IR Inten    --      6.5907                 6.5949                 7.4689

                     85                     86                     87
                      A                      A                      A
 Frequencies --   3061.4246              3064.4844              3072.3325
 Red. masses --      1.0366                 1.0393                 1.0396
 Frc consts  --      5.7239                 5.7503                 5.7816
 IR Inten    --     19.9450                 8.5197                33.5100

                     88                     89                     90
                      A                      A                      A
 Frequencies --   3126.3317              3130.3444              3136.4727
 Red. masses --      1.1023                 1.1011                 1.1019
 Frc consts  --      6.3480                 6.3573                 6.3865
 IR Inten    --      4.1058                 9.9933                67.1509

                     91                     92                     93
                      A                      A                      A
 Frequencies --   3144.9352              3148.8824              3149.3069
 Red. masses --      1.0848                 1.0525                 1.0821
 Frc consts  --      6.3215                 6.1486                 6.3233
 IR Inten    --     13.4106                12.3936                18.1492

                     94                     95                     96
                      A                      A                      A
 Frequencies --   3153.8676              3162.2013              3163.6907
 Red. masses --      1.0736                 1.0554                 1.0618
 Frc consts  --      6.2916                 6.2178                 6.2615
 IR Inten    --     15.2049                 8.5848                13.6783

                     97                     98                     99
                      A                      A                      A
 Frequencies --   3176.3986              3180.8048              3233.8938
 Red. masses --      1.0973                 1.0990                 1.1198
 Frc consts  --      6.5232                 6.5515                 6.8999
 IR Inten    --     16.6613                10.4588                 1.3510

                    100                    101                    102
                      A                      A                      A
 Frequencies --   3235.3131              3248.5610              3253.2251
 Red. masses --      1.1176                 1.1099                 1.1029
 Frc consts  --      6.8926                 6.9010                 6.8775
 IR Inten    --      7.5233                13.9011                11.5995

                    103                    104                    105
                      A                      A                      A
 Frequencies --   3262.1819              3457.2149              3539.1282
 Red. masses --      1.1124                 1.0495                 1.0911
 Frc consts  --      6.9749                 7.3907                 8.0523
 IR Inten    --      5.2845                 2.6394                 0.2280

 - Thermochemistry -
 -------------------
 Temperature   298.150 Kelvin.  Pressure   1.00000 Atm.
 Atom     1 has atomic number  6 and mass  12.00000

 Molecular mass:   219.17355 amu.
 Principal axes and moments of inertia in atomic units:
                           1         2         3
     Eigenvalues --  1997.356834548.267875631.38389
           X            0.99999  -0.00311  -0.00269
           Y            0.00311   0.99999   0.00131
           Z            0.00268  -0.00132   1.00000
 This molecule is an asymmetric top.
 Rotational symmetry number  1.
 Warning -- assumption of classical behavior for rotation
           may cause significant error
 Rotational temperatures (Kelvin)      0.04336     0.01904     0.01538
 Rotational constants (GHZ):           0.90356     0.39680     0.32048
 Zero-point vibrational energy     860678.5 (Joules/Mol)
                                  205.70711 (Kcal/Mol)
 Warning -- explicit consideration of  25 degrees of freedom as
           vibrations may cause significant error
 Vibrational temperatures:     65.78    77.25   111.51   153.59   207.01
          (Kelvin)            219.48   237.81   254.54   322.82   364.22
                              379.65   397.31   412.16   428.07   453.13
                              466.03   523.26   536.36   582.32   602.70
                              619.81   684.21   722.02   765.82   831.33
                              914.04   961.66   990.85  1060.26  1158.32
                             1173.76  1203.33  1221.35  1240.68  1253.55
                             1296.78  1310.59  1333.04  1348.29  1352.95
                             1365.68  1369.97  1413.64  1459.18  1492.47
                             1530.08  1533.85  1540.60  1543.55  1566.75
                             1568.69  1583.03  1654.04  1661.80  1717.51
                             1739.55  1753.13  1760.90  1782.31  1814.74
                             1829.34  1853.21  1863.66  1882.85  1928.61
                             1973.38  2022.09  2049.65  2055.58  2073.17
                             2098.10  2122.66  2149.41  2164.04  2170.56
                             2183.70  2186.19  2187.90  2200.58  2207.11
                             2213.73  2238.08  2298.73  2446.88  4404.71
                             4409.11  4420.40  4498.09  4503.87  4512.68
                             4524.86  4530.54  4531.15  4537.71  4549.70
                             4551.85  4570.13  4576.47  4652.85  4654.89
                             4673.95  4680.67  4693.55  4974.16  5092.02

 Zero-point correction=                           0.327815 (Hartree/Particle)
 Thermal correction to Energy=                    0.344112
 Thermal correction to Enthalpy=                  0.345056
 Thermal correction to Gibbs Free Energy=         0.285215
 Sum of electronic and zero-point Energies=           -671.943740
 Sum of electronic and thermal Energies=              -671.927443
 Sum of electronic and thermal Enthalpies=            -671.926498
 Sum of electronic and thermal Free Energies=         -671.986340

                     E (Thermal)             CV                S
                      KCal/Mol        Cal/Mol-Kelvin    Cal/Mol-Kelvin
 Total                  215.934             64.441            125.947
 Electronic               0.000              0.000              0.000
 Translational            0.889              2.981             42.057
 Rotational               0.889              2.981             32.303
 Vibrational            214.156             58.479             51.587
 Vibration     1          0.595              1.979              4.995
 Vibration     2          0.596              1.976              4.677
 Vibration     3          0.599              1.964              3.953
 Vibration     4          0.606              1.944              3.327
 Vibration     5          0.616              1.909              2.752
 Vibration     6          0.619              1.900              2.640
 Vibration     7          0.624              1.885              2.488
 Vibration     8          0.628              1.871              2.361
 Vibration     9          0.649              1.804              1.924
 Vibration    10          0.664              1.757              1.709
 Vibration    11          0.670              1.739              1.636
 Vibration    12          0.678              1.718              1.557
 Vibration    13          0.684              1.699              1.495
 Vibration    14          0.691              1.678              1.431
 Vibration    15          0.702              1.645              1.336
 Vibration    16          0.708              1.628              1.290
 Vibration    17          0.737              1.547              1.106
 Vibration    18          0.744              1.528              1.068
 Vibration    19          0.770              1.460              0.945
 Vibration    20          0.782              1.429              0.896
 Vibration    21          0.792              1.403              0.856
 Vibration    22          0.832              1.304              0.722
 Vibration    23          0.857              1.246              0.654
 Vibration    24          0.887              1.179              0.582
 Vibration    25          0.934              1.079              0.489

 Optimization completed.
    -- Stationary point found.
 Normal termination of Gaussian 16 at Fri Dec 11 01:13:02 2020.

 ----------------------------------------------------------------------
 # B3LYP/6-311++G(d,p) empiricaldispersion=gd3bj scf=xqc pop=npa geom=c
 heck
 ----------------------------------------------------------------------

 ---------------------------------------
 CID_105474896_JID_6836_Energie_neutraal
 ---------------------------------------
 Structure from the checkpoint file:  "JID_6836.chk"
 Charge =  0 Multiplicity = 1

 SCF Done:  E(RB3LYP) =  -672.455529986     A.U. after   17 cycles
 Normal termination of Gaussian 16 at Fri Dec 11 01:22:01 2020.

 ----------------------------------------------------------------------
 # B3LYP/6-311++G(d,p) empiricaldispersion=gd3bj scf=xqc pop=npa geom=c
 heck
 ----------------------------------------------------------------------

 -------------------------------------
 CID_105474896_JID_6836_Energie_kation
 -------------------------------------
 Structure from the checkpoint file:  "JID_6836.chk"
 Charge =  1 Multiplicity = 2

 SCF Done:  E(UB3LYP) =  -672.166101034     A.U. after   28 cycles
 Normal termination of Gaussian 16 at Fri Dec 11 01:43:01 2020.
 Gaussian 16:  ES64L-G16RevA.03 25-Dec-2016

 ----------------------------------------------------------------------
 # B3LYP/6-311++G(d,p) empiricaldispersion=gd3bj scf=xqc pop=npa geom=c
 heck
 ----------------------------------------------------------------------

 ------------------------------------
 CID_105474896_JID_6836_Energie_anion
 ------------------------------------
 Structure from the checkpoint file:  "JID_6836.chk"
 Charge = -1 Multiplicity = 2

                         Standard orientation:
 ---------------------------------------------------------------------
 Center     Atomic      Atomic             Coordinates (Angstroms)
 Number     Number       Type             X           Y           Z
 ---------------------------------------------------------------------
      1          6           0       -2.938757    0.161515   -1.406021
      2          6           0       -2.586141   -0.253800    0.031246
      3          6           0       -2.898649    0.877826    1.021183
      4          6           0       -3.413642   -1.485637    0.431750
      5          7           0       -1.142708   -0.624059    0.077623
      6          6           0       -0.007714    0.153416    0.184879
      7          6           0        1.077489   -0.718792    0.057340
      8          6           0        0.488438   -1.983855   -0.150105
      9          7           0       -0.837842   -1.925499   -0.148996
     10          6           0        2.533433   -0.415268    0.205160
     11          6           0        3.529981   -1.385088   -0.385033
     12          6           0        3.350547   -0.026920   -1.012106
     13          7           0        2.979841    0.211267    1.440691
     14          6           0        0.003659    1.618383    0.426156
     15          6           0        1.099251    2.486922   -0.154988
     16          6           0       -0.299871    2.606565   -0.686223
     17          1           0       -4.008859    0.383008   -1.484529
     18          1           0       -2.699112   -0.650606   -2.098935
     19          1           0       -2.383082    1.053280   -1.707099
     20          1           0       -3.984942    0.994073    1.088111
     21          1           0       -2.522769    0.635715    2.020783
     22          1           0       -2.482251    1.834744    0.706951
     23          1           0       -3.250587   -2.317167   -0.253115
     24          1           0       -3.149639   -1.820518    1.439335
     25          1           0       -4.473809   -1.211491    0.420325
     26          1           0        0.982217   -2.937029   -0.287139
     27          1           0        4.430953   -1.555636    0.194624
     28          1           0        3.157766   -2.248570   -0.927070
     29          1           0        2.837904    0.027653   -1.968227
     30          1           0        4.134246    0.708281   -0.857149
     31          1           0        2.676979   -0.365212    2.225932
     32          1           0        2.502966    1.105428    1.548939
     33          1           0       -0.342753    1.926519    1.410698
     34          1           0        1.484430    3.289909    0.467189
     35          1           0        1.839807    2.014765   -0.788832
     36          1           0       -0.489067    2.199729   -1.674385
     37          1           0       -0.883570    3.489567   -0.441055
 ---------------------------------------------------------------------

 SCF Done:  E(UB3LYP) =  -672.442685915     A.U. after   31 cycles

 The electronic state is 2-A.
 Alpha  occ. eigenvalues --  -14.28169 -14.22192 -14.20130 -10.13026 -10.12300
 Alpha  occ. eigenvalues --  -10.11068 -10.09080 -10.08513 -10.08254 -10.08188
 Alpha  occ. eigenvalues --  -10.07667 -10.07617 -10.06868 -10.06477 -10.06081
 Alpha  occ. eigenvalues --  -10.05900  -0.94257  -0.81996  -0.77103  -0.75521
 Alpha  occ. eigenvalues --   -0.72727  -0.68879  -0.66294  -0.59717  -0.59229
 Alpha  occ. eigenvalues --   -0.54695  -0.52430  -0.51439  -0.50543  -0.50366
 Alpha  occ. eigenvalues --   -0.45694  -0.43645  -0.41992  -0.39705  -0.39398
 Alpha  occ. eigenvalues --   -0.38210  -0.37066  -0.36583  -0.35993  -0.34574
 Alpha  occ. eigenvalues --   -0.32797  -0.32172  -0.31152  -0.29238  -0.28671
 Alpha  occ. eigenvalues --   -0.28179  -0.27993  -0.27672  -0.27181  -0.26591
 Alpha  occ. eigenvalues --   -0.24828  -0.24273  -0.22771  -0.21772  -0.21082
 Alpha  occ. eigenvalues --   -0.20427  -0.17999  -0.16129  -0.14644  -0.13029
 Alpha  occ. eigenvalues --    0.04453
 Alpha virt. eigenvalues --    0.06790   0.07036   0.07547   0.08608   0.08741
 Alpha virt. eigenvalues --    0.09135   0.09394   0.09784   0.10288   0.10435
 Alpha virt. eigenvalues --    0.11096   0.11557   0.11857   0.12714   0.12793

  Beta  occ. eigenvalues --  -14.28154 -14.22176 -14.20112 -10.13022 -10.12298
  Beta  occ. eigenvalues --  -10.11055 -10.09063 -10.08514 -10.08250 -10.08184
  Beta  occ. eigenvalues --  -10.07634 -10.07593 -10.06862 -10.06456 -10.06064
  Beta  occ. eigenvalues --  -10.05861  -0.94232  -0.81978  -0.77063  -0.75501
  Beta  occ. eigenvalues --   -0.72703  -0.68849  -0.66270  -0.59668  -0.59184
  Beta  occ. eigenvalues --   -0.54654  -0.52407  -0.51392  -0.50497  -0.50323
  Beta  occ. eigenvalues --   -0.45673  -0.43597  -0.41964  -0.39682  -0.39312
  Beta  occ. eigenvalues --   -0.38182  -0.37039  -0.36534  -0.35964  -0.34544
  Beta  occ. eigenvalues --   -0.32774  -0.32134  -0.31137  -0.29199  -0.28642
  Beta  occ. eigenvalues --   -0.28163  -0.27960  -0.27640  -0.27139  -0.26555
  Beta  occ. eigenvalues --   -0.24799  -0.24246  -0.22753  -0.21731  -0.21047
  Beta  occ. eigenvalues --   -0.20406  -0.17972  -0.16111  -0.14590  -0.12962
  Beta virt. eigenvalues --    0.06592   0.07293   0.07818   0.07912   0.08764
  Beta virt. eigenvalues --    0.09213   0.09400   0.09794   0.10099   0.10524
  Beta virt. eigenvalues --    0.10822   0.11160   0.11977   0.12121   0.12933

 Mulliken charges and spin densities:
               1          2
     1  C    0.573884  -0.985865
     2  C   -1.931559   1.841732
     3  C    1.386951  -1.927080
     4  C   -0.304431  -0.150261
     5  N    0.473183   0.094631
     6  C   -0.341526   0.000878
     7  C    1.617587  -0.670250
     8  C    0.824019  -1.194979
     9  N    0.018124  -0.040701
    10  C   -2.516533   2.048414
    11  C   -0.443546  -0.024700
    12  C   -0.137034  -0.295516
    13  N   -0.183511  -0.047284
    14  C   -0.261496   0.024860
    15  C    0.466192  -1.111060
    16  C    1.237554  -1.627148
    17  H   -0.236228   0.393835
    18  H    0.074071   0.079228
    19  H   -0.280527   0.431080
    20  H   -0.510834   0.680196
    21  H   -0.145349   0.316385
    22  H   -0.229296   0.398629
    23  H    0.102765   0.067425
    24  H    0.024055   0.142526
    25  H   -0.015883   0.148910
    26  H    0.045051   0.093959
    27  H    0.091202   0.066355
    28  H    0.091309   0.006843
    29  H    0.018120   0.136427
    30  H    0.128024   0.018338
    31  H    0.064534   0.169230
    32  H    0.119566   0.157619
    33  H   -0.359905   0.642482
    34  H   -0.450977   0.645759
    35  H    0.286272  -0.141893
    36  H    0.111162   0.019262
    37  H   -0.404991   0.591736
 Sum of Mulliken charges =  -1.00000   1.00000

 Dipole moment (field-independent basis, Debye):
    X=              4.4699    Y=             -6.0178    Z=             -3.2591  Tot=              8.1740
 Quadrupole moment (field-independent basis, Debye-Ang):
   XX=           -166.4293   YY=           -156.1659   ZZ=           -134.9973
   XY=              4.6785   XZ=             -1.3760   YZ=             -7.7991

 Summary of Natural Population Analysis:

                                       Natural Population
                Natural  -----------------------------------------------
    Atom  No    Charge         Core      Valence    Rydberg      Total
 -----------------------------------------------------------------------
      C    1   -0.28665      0.99960     2.28061    0.00644     3.28665
      C    2    0.07018      0.99957     1.91685    0.01340     2.92982
      C    3   -0.29131      0.99961     2.28414    0.00756     3.29131
      C    4   -0.28611      0.99962     2.27958    0.00692     3.28611
      N    5   -0.11073      0.99960     2.59538    0.01576     3.61073
      C    6    0.09521      0.99947     1.89193    0.01339     2.90479
      C    7   -0.07834      0.99943     2.06767    0.01124     3.07834
      C    8   -0.00972      0.99957     1.99702    0.01313     3.00972
      N    9   -0.15575      0.99973     2.64437    0.01165     3.65575
      C   10    0.04241      0.99951     1.94447    0.01360     2.95759
      C   11   -0.19376      0.99960     2.18608    0.00808     3.19376
      C   12   -0.19677      0.99959     2.18928    0.00790     3.19677
      N   13   -0.41883      0.99975     2.90971    0.00936     3.91883
      C   14   -0.14374      0.99957     2.13046    0.01371     3.14374
      C   15   -0.19601      0.99961     2.18663    0.00977     3.19601
      C   16   -0.18892      0.99961     2.17992    0.00939     3.18892
      H   17    0.10173      0.00000     0.39734    0.00093     0.39827
      H   18    0.10313      0.00000     0.39592    0.00095     0.39687
      H   19    0.10291      0.00000     0.39587    0.00121     0.39709
      H   20    0.10485      0.00000     0.39370    0.00145     0.39515
      H   21    0.10501      0.00000     0.39341    0.00157     0.39499
      H   22    0.10875      0.00000     0.38909    0.00215     0.39125
      H   23    0.11051      0.00000     0.38813    0.00135     0.38949
      H   24    0.10432      0.00000     0.39466    0.00102     0.39568
      H   25    0.09920      0.00000     0.39997    0.00083     0.40080
      H   26    0.09460      0.00000     0.40440    0.00101     0.40540
      H   27    0.10534      0.00000     0.39365    0.00101     0.39466
      H   28    0.10115      0.00000     0.39789    0.00096     0.39885
      H   29    0.10357      0.00000     0.39542    0.00100     0.39643
      H   30    0.10591      0.00000     0.39297    0.00112     0.39409
      H   31    0.17513      0.00000     0.32318    0.00170     0.32487
      H   32    0.18072      0.00000     0.31716    0.00212     0.31928
      H   33    0.11849      0.00000     0.37743    0.00409     0.38151
      H   34    0.10671      0.00000     0.39163    0.00166     0.39329
      H   35    0.10664      0.00000     0.39197    0.00139     0.39336
      H   36    0.10109      0.00000     0.39765    0.00126     0.39891
      H   37    0.10907      0.00000     0.38840    0.00253     0.39093
 =======================================================================
   * Total *    0.00000     15.99346    43.80393    0.20262    60.00000

 Normal termination of Gaussian 16 at Fri Dec 11 02:06:10 2020.
