 Gaussian 16, Revision A.03,

 -----------------------------------------------------------
 # opt freq B3LYP/6-31G(d) empiricaldispersion=gd3bj scf=xqc
 -----------------------------------------------------------

 ------------------------------
 CID_102607007_JID_410_neutraal
 ------------------------------
 Symbolic Z-matrix:
 Charge =  0 Multiplicity = 1

 SCF Done:  E(RB3LYP) =  -499.599898523     A.U. after   14 cycles
 SCF Done:  E(RB3LYP) =  -499.604552634     A.U. after   13 cycles
 SCF Done:  E(RB3LYP) =  -499.605419277     A.U. after   12 cycles
 SCF Done:  E(RB3LYP) =  -499.605993147     A.U. after   12 cycles
 SCF Done:  E(RB3LYP) =  -499.605994056     A.U. after   12 cycles
 SCF Done:  E(RB3LYP) =  -499.606170014     A.U. after   12 cycles
 SCF Done:  E(RB3LYP) =  -499.606222605     A.U. after   12 cycles
 SCF Done:  E(RB3LYP) =  -499.606288179     A.U. after   10 cycles
 SCF Done:  E(RB3LYP) =  -499.606293065     A.U. after    9 cycles
 SCF Done:  E(RB3LYP) =  -499.606297320     A.U. after   10 cycles
 SCF Done:  E(RB3LYP) =  -499.606298788     A.U. after    8 cycles
 SCF Done:  E(RB3LYP) =  -499.606301132     A.U. after    9 cycles
 SCF Done:  E(RB3LYP) =  -499.606301485     A.U. after    8 cycles
 SCF Done:  E(RB3LYP) =  -499.606301523     A.U. after    7 cycles
 Optimization completed.
    -- Stationary point found.

 1\1\GINC-NODE119\FOpt\RB3LYP\6-31G(d)\C7H12O3\VSC10255\08-Dec-2020\0\\
 # opt freq B3LYP/6-31G(d) empiricaldispersion=gd3bj scf=xqc\\CID_10260
 7007_JID_410_neutraal\\0,1\C,1.3095806723,0.3505632033,0.3413479948\C,
 0.4152133503,1.6021579285,0.2996508168\C,0.7512788814,2.5081367126,-0.
 8703893072\O,-0.0357997878,2.7535504923,-1.7640647126\C,2.1804877303,3
 .0635343275,-0.9547774721\O,2.8262212564,3.2149058203,0.297963747\C,2.
 4158707785,4.3692911123,0.9950831587\C,3.1692210154,4.5685601625,2.314
 8032484\O,3.5883621182,5.8956446278,1.9233451545\C,3.0613776032,5.7136

 Normal termination of Gaussian 16 at Tue Dec  8 10:34:15 2020.

 --------------------------------------------------------------------
 #N Geom=AllCheck Guess=TCheck SCRF=Check GenChk RB3LYP/6-31G(d) Freq
 --------------------------------------------------------------------

 Structure from the checkpoint file:  "JID_410.chk"
 ------------------------------
 CID_102607007_JID_410_neutraal
 ------------------------------
 Charge =  0 Multiplicity = 1

 SCF Done:  E(RB3LYP) =  -499.606301523     A.U. after    1 cycles

  Exact polarizability:  84.964   0.699  83.507  -0.261   1.352  67.979
 Approx polarizability: 106.045   7.276 120.189  -0.791  -1.969  99.375

                      1                      2                      3
                      A                      A                      A
 Frequencies --     39.7939                54.7564                60.7679
 Red. masses --      4.5746                 3.7583                 3.8763
 Frc consts  --      0.0043                 0.0066                 0.0084
 IR Inten    --      2.8667                 5.3139                 1.8015

                      4                      5                      6
                      A                      A                      A
 Frequencies --     73.1458               102.7452               183.6350
 Red. masses --      2.8219                 2.8419                 3.2958
 Frc consts  --      0.0089                 0.0177                 0.0655
 IR Inten    --      0.4466                 2.8236                 3.3574

                      7                      8                      9
                      A                      A                      A
 Frequencies --    224.9035               263.3343               288.1695
 Red. masses --      1.3409                 1.9874                 2.4226
 Frc consts  --      0.0400                 0.0812                 0.1185
 IR Inten    --      0.5770                 0.7728                 7.2462

                     10                     11                     12
                      A                      A                      A
 Frequencies --    376.9523               452.0317               493.6073
 Red. masses --      3.3711                 2.6494                 3.5305
 Frc consts  --      0.2822                 0.3190                 0.5068
 IR Inten    --      1.7936                 4.5343                24.8401

                     13                     14                     15
                      A                      A                      A
 Frequencies --    553.4688               589.6983               719.1537
 Red. masses --      3.3202                 2.8164                 3.2160
 Frc consts  --      0.5992                 0.5770                 0.9800
 IR Inten    --      0.2527                 3.1636                 5.7601

                     16                     17                     18
                      A                      A                      A
 Frequencies --    739.1830               814.2366               880.5669
 Red. masses --      3.3412                 1.2622                 2.4391
 Frc consts  --      1.0756                 0.4930                 1.1143
 IR Inten    --      4.3739                 7.8913                16.9871

                     19                     20                     21
                      A                      A                      A
 Frequencies --    895.5696               957.9276               978.0503
 Red. masses --      1.4219                 1.7258                 2.6129
 Frc consts  --      0.6719                 0.9330                 1.4727
 IR Inten    --      3.8960                12.6216                 4.0135

                     22                     23                     24
                      A                      A                      A
 Frequencies --    994.7345              1035.4670              1059.0708
 Red. masses --      2.9027                 7.1903                 2.7750
 Frc consts  --      1.6922                 4.5422                 1.8338
 IR Inten    --      5.3054                71.8441                32.4017

                     25                     26                     27
                      A                      A                      A
 Frequencies --   1072.2983              1082.7772              1111.4720
 Red. masses --      2.7966                 2.4606                 1.9809
 Frc consts  --      1.8946                 1.6997                 1.4418
 IR Inten    --     14.0434                10.6436                 2.6849

                     28                     29                     30
                      A                      A                      A
 Frequencies --   1146.7478              1164.0321              1166.8523
 Red. masses --      2.2830                 1.3827                 1.5527
 Frc consts  --      1.7689                 1.1038                 1.2456
 IR Inten    --     29.7842                54.7684                67.0183

                     31                     32                     33
                      A                      A                      A
 Frequencies --   1198.0293              1240.5925              1287.8202
 Red. masses --      1.3797                 2.2822                 1.3744
 Frc consts  --      1.1667                 2.0695                 1.3430
 IR Inten    --     22.4006                22.1672                15.5218

                     34                     35                     36
                      A                      A                      A
 Frequencies --   1301.4148              1308.4270              1317.9055
 Red. masses --      1.4240                 1.2577                 1.3825
 Frc consts  --      1.4210                 1.2686                 1.4148
 IR Inten    --     20.9994                25.3725                10.8986

                     37                     38                     39
                      A                      A                      A
 Frequencies --   1355.3987              1366.9163              1382.2844
 Red. masses --      1.5555                 1.3010                 1.3469
 Frc consts  --      1.6837                 1.4322                 1.5163
 IR Inten    --      7.1736                17.0173                 4.5630

                     40                     41                     42
                      A                      A                      A
 Frequencies --   1432.5235              1438.8874              1494.2307
 Red. masses --      1.2842                 1.3417                 1.0882
 Frc consts  --      1.5527                 1.6367                 1.4315
 IR Inten    --     15.1587                 7.8394                 1.6978

                     43                     44                     45
                      A                      A                      A
 Frequencies --   1501.0334              1528.9638              1532.4519
 Red. masses --      1.0902                 1.0821                 1.0425
 Frc consts  --      1.4472                 1.4904                 1.4424
 IR Inten    --     12.1790                 1.0847                 4.5703

                     46                     47                     48
                      A                      A                      A
 Frequencies --   1542.5641              1556.9656              1816.8802
 Red. masses --      1.0521                 1.1193                11.2734
 Frc consts  --      1.4750                 1.5987                21.9259
 IR Inten    --      4.6625                 3.1010               146.1717

                     49                     50                     51
                      A                      A                      A
 Frequencies --   3032.3357              3036.0616              3045.4773
 Red. masses --      1.0815                 1.0562                 1.0607
 Frc consts  --      5.8590                 5.7360                 5.7966
 IR Inten    --     22.0401                66.8893                46.1232

                     52                     53                     54
                      A                      A                      A
 Frequencies --   3050.9472              3059.1100              3062.1596
 Red. masses --      1.0606                 1.0536                 1.0448
 Frc consts  --      5.8165                 5.8090                 5.7719
 IR Inten    --      7.2936                 3.2338                32.1535

                     55                     56                     57
                      A                      A                      A
 Frequencies --   3094.9080              3095.5469              3100.7920
 Red. masses --      1.1086                 1.1058                 1.1120
 Frc consts  --      6.2566                 6.2432                 6.2992
 IR Inten    --     12.1246                32.1464                67.6065

                     58                     59                     60
                      A                      A                      A
 Frequencies --   3119.3923              3128.6723              3147.4647
 Red. masses --      1.0994                 1.1035                 1.1025
 Frc consts  --      6.3028                 6.3645                 6.4350
 IR Inten    --      6.0452                23.6461                28.1357

 - Thermochemistry -
 -------------------
 Temperature   298.150 Kelvin.  Pressure   1.00000 Atm.
 Atom     1 has atomic number  6 and mass  12.00000

 Molecular mass:   144.07864 amu.
 Principal axes and moments of inertia in atomic units:
                           1         2         3
     Eigenvalues --   712.061922561.067922929.18236
           X            0.99950  -0.03151   0.00372
           Y            0.03138   0.99908   0.02908
           Z           -0.00463  -0.02895   0.99957
 This molecule is an asymmetric top.
 Rotational symmetry number  1.
 Warning -- assumption of classical behavior for rotation
           may cause significant error
 Rotational temperatures (Kelvin)      0.12164     0.03382     0.02957
 Rotational constants (GHZ):           2.53453     0.70468     0.61612
 Zero-point vibrational energy     491373.9 (Joules/Mol)
                                  117.44119 (Kcal/Mol)
 Warning -- explicit consideration of  14 degrees of freedom as
           vibrations may cause significant error
 Vibrational temperatures:     57.25    78.78    87.43   105.24   147.83
          (Kelvin)            264.21   323.59   378.88   414.61   542.35
                              650.37   710.19   796.32   848.44  1034.70
                             1063.52  1171.50  1266.94  1288.52  1378.24
                             1407.20  1431.20  1489.81  1523.77  1542.80
                             1557.87  1599.16  1649.91  1674.78  1678.84
                             1723.70  1784.94  1852.89  1872.45  1882.53
                             1896.17  1950.12  1966.69  1988.80  2061.08
                             2070.24  2149.86  2159.65  2199.84  2204.86
                             2219.41  2240.13  2614.09  4362.85  4368.22
                             4381.76  4389.63  4401.38  4405.76  4452.88
                             4453.80  4461.35  4488.11  4501.46  4528.50

 Zero-point correction=                           0.187154 (Hartree/Particle)
 Thermal correction to Energy=                    0.198039
 Thermal correction to Enthalpy=                  0.198983
 Thermal correction to Gibbs Free Energy=         0.148755
 Sum of electronic and zero-point Energies=           -499.419147
 Sum of electronic and thermal Energies=              -499.408263
 Sum of electronic and thermal Enthalpies=            -499.407319
 Sum of electronic and thermal Free Energies=         -499.457546

                     E (Thermal)             CV                S
                      KCal/Mol        Cal/Mol-Kelvin    Cal/Mol-Kelvin
 Total                  124.271             37.827            105.713
 Electronic               0.000              0.000              0.000
 Translational            0.889              2.981             40.807
 Rotational               0.889              2.981             30.058
 Vibrational            122.494             31.866             34.848
 Vibration     1          0.594              1.981              5.269
 Vibration     2          0.596              1.976              4.638
 Vibration     3          0.597              1.973              4.432
 Vibration     4          0.599              1.967              4.067
 Vibration     5          0.605              1.947              3.402
 Vibration     6          0.631              1.862              2.291
 Vibration     7          0.650              1.803              1.919
 Vibration     8          0.670              1.740              1.640
 Vibration     9          0.685              1.696              1.485
 Vibration    10          0.748              1.519              1.051
 Vibration    11          0.811              1.356              0.790
 Vibration    12          0.849              1.264              0.674
 Vibration    13          0.909              1.132              0.537
 Vibration    14          0.947              1.054              0.468

                           ! Non-Optimized Parameters !

 1\1\GINC-NODE119\Freq\RB3LYP\6-31G(d)\C7H12O3\VSC10255\08-Dec-2020\0\\
 #N Geom=AllCheck Guess=TCheck SCRF=Check GenChk RB3LYP/6-31G(d) Freq\\
 CID_102607007_JID_410_neutraal\\0,1\C,1.3095806723,0.3505632033,0.3413
 479948\C,0.4152133503,1.6021579285,0.2996508168\C,0.7512788814,2.50813
 67126,-0.8703893072\O,-0.0357997878,2.7535504923,-1.7640647126\C,2.180
 4877303,3.0635343275,-0.9547774721\O,2.8262212564,3.2149058203,0.29796
 3747\C,2.4158707785,4.3692911123,0.9950831587\C,3.1692210154,4.5685601
 625,2.3148032484\O,3.5883621182,5.8956446278,1.9233451545\C,3.06137760

 Normal termination of Gaussian 16 at Tue Dec  8 10:39:01 2020.

 ----------------------------------------------------------------------
 # B3LYP/6-311++G(d,p) empiricaldispersion=gd3bj scf=xqc pop=npa geom=c
 heck
 ----------------------------------------------------------------------

 --------------------------------------
 CID_102607007_JID_410_Energie_neutraal
 --------------------------------------
 Structure from the checkpoint file:  "JID_410.chk"
 Charge =  0 Multiplicity = 1

 SCF Done:  E(RB3LYP) =  -499.757264657     A.U. after   13 cycles
 Normal termination of Gaussian 16 at Tue Dec  8 10:42:00 2020.

 ----------------------------------------------------------------------
 # B3LYP/6-311++G(d,p) empiricaldispersion=gd3bj scf=xqc pop=npa geom=c
 heck
 ----------------------------------------------------------------------

 ------------------------------------
 CID_102607007_JID_410_Energie_kation
 ------------------------------------
 Structure from the checkpoint file:  "JID_410.chk"
 Charge =  1 Multiplicity = 2

 SCF Done:  E(UB3LYP) =  -499.427250133     A.U. after   22 cycles
 Normal termination of Gaussian 16 at Tue Dec  8 10:46:36 2020.
 Gaussian 16:  ES64L-G16RevA.03 25-Dec-2016

 -----------------------------------
 CID_102607007_JID_410_Energie_anion
 -----------------------------------
 Structure from the checkpoint file:  "JID_410.chk"
 Charge = -1 Multiplicity = 2

                         Standard orientation:
 ---------------------------------------------------------------------
 Center     Atomic      Atomic             Coordinates (Angstroms)
 Number     Number       Type             X           Y           Z
 ---------------------------------------------------------------------
      1          6           0        2.612595   -1.615068    0.368037
      2          6           0        2.148359   -0.648316   -0.735592
      3          6           0        1.778819    0.716255   -0.184124
      4          8           0        2.368318    1.734800   -0.489794
      5          6           0        0.662216    0.781724    0.868083
      6          8           0       -0.301510   -0.252737    0.766266
      7          6           0       -1.246932   -0.028439   -0.254928
      8          6           0       -2.329645   -1.111564   -0.313900
      9          8           0       -3.380521   -0.126590   -0.189173
     10          6           0       -2.421104    0.926444    0.058586
     11          1           0        3.468510   -1.206155    0.915956
     12          1           0        2.920770   -2.569042   -0.071097
     13          1           0        1.804216   -1.813982    1.077135
     14          1           0        2.932216   -0.492824   -1.482118
     15          1           0        1.275144   -1.079922   -1.240495
     16          1           0        1.129198    0.669599    1.854062
     17          1           0        0.207564    1.780406    0.827986
     18          1           0       -0.753428    0.177614   -1.214495
     19          1           0       -2.412280   -1.688991   -1.241636
     20          1           0       -2.286354   -1.790944    0.546763
     21          1           0       -2.431883    1.263076    1.103785
     22          1           0       -2.569819    1.781166   -0.611207
 ---------------------------------------------------------------------

 SCF Done:  E(UB3LYP) =  -499.744995575     A.U. after   32 cycles

 The electronic state is 2-A.
 Alpha  occ. eigenvalues --  -19.03343 -19.02537 -18.97849 -10.13093 -10.12206
 Alpha  occ. eigenvalues --  -10.11825 -10.11652 -10.11439 -10.05136 -10.04604
 Alpha  occ. eigenvalues --   -0.96170  -0.93716  -0.91297  -0.66838  -0.64770
 Alpha  occ. eigenvalues --   -0.60163  -0.58458  -0.52595  -0.47189  -0.43078
 Alpha  occ. eigenvalues --   -0.41950  -0.40724  -0.37333  -0.35574  -0.33842
 Alpha  occ. eigenvalues --   -0.33550  -0.31178  -0.31064  -0.30680  -0.28106
 Alpha  occ. eigenvalues --   -0.26531  -0.25280  -0.24375  -0.23202  -0.22358
 Alpha  occ. eigenvalues --   -0.21823  -0.17797  -0.16220  -0.11961   0.05180
 Alpha virt. eigenvalues --    0.07415   0.08151   0.08385   0.09278   0.10335
 Alpha virt. eigenvalues --    0.10750   0.11234   0.11843   0.12344   0.13325
 Alpha virt. eigenvalues --    0.13580   0.14525   0.15331   0.16872   0.17426

  Beta  occ. eigenvalues --  -19.03324 -19.02536 -18.97615 -10.13091 -10.12187
  Beta  occ. eigenvalues --  -10.11799 -10.11456 -10.11392 -10.05145 -10.04537
  Beta  occ. eigenvalues --   -0.96145  -0.93674  -0.90854  -0.66684  -0.64706
  Beta  occ. eigenvalues --   -0.60114  -0.58327  -0.52399  -0.47124  -0.42924
  Beta  occ. eigenvalues --   -0.41850  -0.40592  -0.37229  -0.35371  -0.33661
  Beta  occ. eigenvalues --   -0.33472  -0.31034  -0.30998  -0.30524  -0.27734
  Beta  occ. eigenvalues --   -0.26427  -0.25092  -0.24264  -0.23146  -0.21799
  Beta  occ. eigenvalues --   -0.21500  -0.17733  -0.16204  -0.11786
  Beta virt. eigenvalues --    0.07552   0.08613   0.08936   0.09346   0.10030
  Beta virt. eigenvalues --    0.10750   0.11258   0.11701   0.12300   0.12705
  Beta virt. eigenvalues --    0.13517   0.13935   0.15042   0.15459   0.17016

 Mulliken charges and spin densities:
               1          2
     1  C    0.971400  -1.530319
     2  C   -0.259101   0.174408
     3  C   -0.052182   0.205295
     4  O   -0.328743   0.083612
     5  C    0.137439  -0.462410
     6  O   -0.065573   0.023568
     7  C   -1.134286   0.941299
     8  C    0.830985  -1.054652
     9  O   -0.253063   0.045465
    10  C    0.636130  -0.838875
    11  H    0.037870   0.088387
    12  H   -0.768336   0.926278
    13  H   -0.072790   0.231350
    14  H   -0.249967   0.429183
    15  H   -0.371061   0.530145
    16  H    0.173584   0.006537
    17  H    0.009093   0.157274
    18  H    0.281530  -0.133906
    19  H   -0.408260   0.583556
    20  H    0.000715   0.165941
    21  H    0.042143   0.120567
    22  H   -0.157527   0.307298
 Sum of Mulliken charges =  -1.00000   1.00000

 Dipole moment (field-independent basis, Debye):
    X=             -3.1683    Y=              3.7010    Z=              3.7002  Tot=              6.1177
 Quadrupole moment (field-independent basis, Debye-Ang):
   XX=           -117.4808   YY=           -107.1940   ZZ=            -83.0655
   XY=              4.3627   XZ=              3.3495   YZ=             -3.9757

 Summary of Natural Population Analysis:

                                       Natural Population
                Natural  -----------------------------------------------
    Atom  No    Charge         Core      Valence    Rydberg      Total
 -----------------------------------------------------------------------
      C    1   -0.28309      0.99966     2.27748    0.00595     3.28309
      C    2   -0.23984      0.99960     2.22984    0.01040     3.23984
      C    3    0.30822      0.99967     1.67155    0.02056     2.69178
      O    4   -0.27556      0.99987     3.26896    0.00672     4.27556
      C    5   -0.05859      0.99953     2.04675    0.01231     3.05859
      O    6   -0.29593      0.99988     3.28698    0.00907     4.29593
      C    7    0.03867      0.99954     1.94668    0.01512     2.96133
      C    8   -0.00833      0.99962     1.99519    0.01352     3.00833
      O    9   -0.30618      0.99991     3.29777    0.00850     4.30618
      C   10   -0.01533      0.99962     2.00532    0.01039     3.01533
      H   11    0.09256      0.00000     0.40641    0.00103     0.40744
      H   12    0.10539      0.00000     0.39020    0.00442     0.39461
      H   13    0.10009      0.00000     0.39847    0.00144     0.39991
      H   14    0.10425      0.00000     0.39452    0.00122     0.39575
      H   15    0.11009      0.00000     0.38558    0.00433     0.38991
      H   16    0.09976      0.00000     0.39913    0.00112     0.40024
      H   17    0.09066      0.00000     0.40735    0.00199     0.40934
      H   18    0.08822      0.00000     0.40959    0.00220     0.41178
      H   19    0.08924      0.00000     0.40869    0.00207     0.41076
      H   20    0.08727      0.00000     0.41091    0.00182     0.41273
      H   21    0.08351      0.00000     0.41470    0.00179     0.41649
      H   22    0.08492      0.00000     0.41329    0.00180     0.41508
 =======================================================================
   * Total *   -0.00000      9.99691    28.86534    0.13775    39.00000

 Normal termination of Gaussian 16 at Tue Dec  8 10:55:32 2020.
