 Gaussian 16, Revision A.03,

 -----------------------------------------------------------
 # opt freq B3LYP/6-31G(d) empiricaldispersion=gd3bj scf=xqc
 -----------------------------------------------------------

 ------------------------------
 CID_70170888_JID_8633_neutraal
 ------------------------------
 Symbolic Z-matrix:
 Charge =  0 Multiplicity = 1

 SCF Done:  E(RB3LYP) =  -772.274523333     A.U. after   15 cycles
 SCF Done:  E(RB3LYP) =  -772.278390159     A.U. after   12 cycles
 SCF Done:  E(RB3LYP) =  -772.278488298     A.U. after   12 cycles
 SCF Done:  E(RB3LYP) =  -772.279369804     A.U. after   12 cycles
 SCF Done:  E(RB3LYP) =  -772.279680717     A.U. after   12 cycles
 SCF Done:  E(RB3LYP) =  -772.279704248     A.U. after   11 cycles
 SCF Done:  E(RB3LYP) =  -772.279711414     A.U. after   11 cycles
 SCF Done:  E(RB3LYP) =  -772.279741278     A.U. after   10 cycles
 SCF Done:  E(RB3LYP) =  -772.279742627     A.U. after    9 cycles
 SCF Done:  E(RB3LYP) =  -772.279742885     A.U. after    8 cycles
 SCF Done:  E(RB3LYP) =  -772.279742936     A.U. after    6 cycles
 SCF Done:  E(RB3LYP) =  -772.279742974     A.U. after    6 cycles
 Optimization completed.
    -- Stationary point found.
 Normal termination of Gaussian 16 at Fri Dec 11 21:18:54 2020.

 --------------------------------------------------------------------
 #N Geom=AllCheck Guess=TCheck SCRF=Check GenChk RB3LYP/6-31G(d) Freq
 --------------------------------------------------------------------

 Structure from the checkpoint file:  "JID_8633.chk"
 ------------------------------
 CID_70170888_JID_8633_neutraal
 ------------------------------
 Charge =  0 Multiplicity = 1

 SCF Done:  E(RB3LYP) =  -772.279742974     A.U. after    1 cycles

  Exact polarizability: 227.408 -23.832 170.616   9.350  15.683 123.670
 Approx polarizability: 318.541 -39.626 258.880  27.517  38.291 203.868

                      1                      2                      3
                      A                      A                      A
 Frequencies --     33.9298                47.5090                66.8394
 Red. masses --      4.1410                 4.3299                 3.2293
 Frc consts  --      0.0028                 0.0058                 0.0085
 IR Inten    --      0.7595                 1.1833                 0.1807

                      4                      5                      6
                      A                      A                      A
 Frequencies --     80.1969                90.9586               117.1423
 Red. masses --      3.6499                 4.1814                 2.2955
 Frc consts  --      0.0138                 0.0204                 0.0186
 IR Inten    --      0.0200                 0.2529                 0.3770

                      7                      8                      9
                      A                      A                      A
 Frequencies --    135.8918               152.6724               159.4942
 Red. masses --      1.3188                 2.6087                 2.9065
 Frc consts  --      0.0143                 0.0358                 0.0436
 IR Inten    --      0.6161                 0.5971                 1.0023

                     10                     11                     12
                      A                      A                      A
 Frequencies --    203.5402               221.5704               255.7602
 Red. masses --      3.4867                 2.8207                 1.7986
 Frc consts  --      0.0851                 0.0816                 0.0693
 IR Inten    --      1.4179                 0.3003                 0.4224

                     13                     14                     15
                      A                      A                      A
 Frequencies --    274.4525               282.5076               312.9716
 Red. masses --      4.4431                 2.0600                 2.0446
 Frc consts  --      0.1972                 0.0969                 0.1180
 IR Inten    --      2.0321                 1.1926                 2.3463

                     16                     17                     18
                      A                      A                      A
 Frequencies --    330.3329               342.4047               371.2340
 Red. masses --      3.6106                 2.8459                 4.2587
 Frc consts  --      0.2321                 0.1966                 0.3458
 IR Inten    --      3.5806                 3.1858                15.1726

                     19                     20                     21
                      A                      A                      A
 Frequencies --    397.7011               451.7444               473.7018
 Red. masses --      3.0635                 3.2589                 2.6170
 Frc consts  --      0.2855                 0.3918                 0.3460
 IR Inten    --      0.1072                 2.8963                 2.1758

                     22                     23                     24
                      A                      A                      A
 Frequencies --    503.2362               518.4715               529.6404
 Red. masses --      4.6900                 3.8021                 2.8084
 Frc consts  --      0.6998                 0.6022                 0.4642
 IR Inten    --      7.3487                 0.1729                 4.9892

                     25                     26                     27
                      A                      A                      A
 Frequencies --    570.4182               609.3324               622.7339
 Red. masses --      3.2272                 5.0874                 3.7995
 Frc consts  --      0.6187                 1.1129                 0.8681
 IR Inten    --      5.3237                 7.1515                 3.3211

                     28                     29                     30
                      A                      A                      A
 Frequencies --    696.8905               740.4643               759.7345
 Red. masses --      2.7020                 4.1018                 2.0753
 Frc consts  --      0.7731                 1.3251                 0.7058
 IR Inten    --      2.2437                 5.4826                 8.2079

                     31                     32                     33
                      A                      A                      A
 Frequencies --    769.8906               781.0958               783.6380
 Red. masses --      1.9921                 2.1590                 1.7973
 Frc consts  --      0.6957                 0.7761                 0.6503
 IR Inten    --     12.0464                15.9170                19.3894

                     34                     35                     36
                      A                      A                      A
 Frequencies --    812.7748               857.0248               862.9809
 Red. masses --      2.6586                 2.6971                 3.1550
 Frc consts  --      1.0348                 1.1672                 1.3844
 IR Inten    --      9.0315                 3.9848                 2.2742

                     37                     38                     39
                      A                      A                      A
 Frequencies --    884.0129               892.8798               920.4544
 Red. masses --      1.5431                 2.0151                 1.6369
 Frc consts  --      0.7105                 0.9465                 0.8171
 IR Inten    --      0.9758                 0.9608                 2.6523

                     40                     41                     42
                      A                      A                      A
 Frequencies --    942.6666               957.6624               984.9305
 Red. masses --      1.4868                 1.4724                 2.1639
 Frc consts  --      0.7784                 0.7956                 1.2368
 IR Inten    --      2.4231                 6.4252                 3.6447

                     43                     44                     45
                      A                      A                      A
 Frequencies --    986.3952              1011.6221              1029.8403
 Red. masses --      1.4594                 2.0232                 3.1870
 Frc consts  --      0.8366                 1.2199                 1.9914
 IR Inten    --      0.7753                 0.0951                 9.1509

                     46                     47                     48
                      A                      A                      A
 Frequencies --   1037.1215              1076.2217              1080.1764
 Red. masses --      2.5769                 2.2631                 2.7053
 Frc consts  --      1.6331                 1.5444                 1.8597
 IR Inten    --      1.1586                 2.0998                 4.2206

                     49                     50                     51
                      A                      A                      A
 Frequencies --   1103.1721              1115.6543              1120.9912
 Red. masses --      2.0909                 2.2776                 2.0468
 Frc consts  --      1.4993                 1.6703                 1.5154
 IR Inten    --      1.9404                31.7813                24.1875

                     52                     53                     54
                      A                      A                      A
 Frequencies --   1127.6437              1161.3006              1186.5335
 Red. masses --      2.1261                 1.8622                 1.2761
 Frc consts  --      1.5928                 1.4797                 1.0585
 IR Inten    --      6.8917                 0.7186                 0.9775

                     55                     56                     57
                      A                      A                      A
 Frequencies --   1198.8374              1209.7080              1217.4791
 Red. masses --      1.1434                 1.6449                 1.5456
 Frc consts  --      0.9682                 1.4183                 1.3498
 IR Inten    --      1.6286                49.0663                 1.4193

                     58                     59                     60
                      A                      A                      A
 Frequencies --   1223.1123              1238.4318              1259.1785
 Red. masses --      1.5255                 2.0876                 1.5506
 Frc consts  --      1.3446                 1.8864                 1.4485
 IR Inten    --     21.0281               209.9093               143.4029

                     61                     62                     63
                      A                      A                      A
 Frequencies --   1266.2643              1304.7322              1322.1029
 Red. masses --      1.4000                 1.9976                 1.3154
 Frc consts  --      1.3226                 2.0035                 1.3547
 IR Inten    --     69.5784               100.6686                 9.6405

                     64                     65                     66
                      A                      A                      A
 Frequencies --   1329.7181              1344.8241              1350.4336
 Red. masses --      2.0085                 3.0001                 1.2787
 Frc consts  --      2.0924                 3.1968                 1.3740
 IR Inten    --    160.5254                19.2645                 4.7045

                     67                     68                     69
                      A                      A                      A
 Frequencies --   1364.8020              1376.1523              1395.7264
 Red. masses --      1.4703                 1.3890                 1.4639
 Frc consts  --      1.6136                 1.5499                 1.6802
 IR Inten    --     10.5029                 0.7849                 4.4556

                     70                     71                     72
                      A                      A                      A
 Frequencies --   1409.6086              1412.5262              1418.9861
 Red. masses --      1.3535                 1.6748                 1.4582
 Frc consts  --      1.5846                 1.9688                 1.7299
 IR Inten    --      3.6866                 3.9839                 2.7108

                     73                     74                     75
                      A                      A                      A
 Frequencies --   1448.3590              1491.0355              1496.9340
 Red. masses --      1.2692                 1.2354                 2.1219
 Frc consts  --      1.5687                 1.6182                 2.8014
 IR Inten    --      3.8639                 9.7739                 9.9857

                     76                     77                     78
                      A                      A                      A
 Frequencies --   1511.4148              1511.7926              1516.3530
 Red. masses --      1.0483                 1.1236                 1.0647
 Frc consts  --      1.4109                 1.5130                 1.4424
 IR Inten    --      5.1728                 1.1734                 2.2850

                     79                     80                     81
                      A                      A                      A
 Frequencies --   1520.1271              1525.2391              1527.6799
 Red. masses --      1.3168                 1.0619                 1.0838
 Frc consts  --      1.7928                 1.4555                 1.4903
 IR Inten    --     15.4404                 5.9550                 3.6960

                     82                     83                     84
                      A                      A                      A
 Frequencies --   1531.8083              1535.8441              1538.2047
 Red. masses --      1.3793                 1.0672                 1.2612
 Frc consts  --      1.9069                 1.4831                 1.7581
 IR Inten    --      8.7223                 8.3770                 5.1421

                     85                     86                     87
                      A                      A                      A
 Frequencies --   1623.7171              1661.2384              1681.1714
 Red. masses --      5.2350                 5.6445                 7.3968
 Frc consts  --      8.1318                 9.1778                12.3174
 IR Inten    --      9.6460                 1.5730                98.6708

                     88                     89                     90
                      A                      A                      A
 Frequencies --   1790.9310              3022.1078              3024.5352
 Red. masses --     11.4625                 1.0789                 1.0649
 Frc consts  --     21.6615                 5.8058                 5.7393
 IR Inten    --    193.8989                 0.6544                31.8788

                     91                     92                     93
                      A                      A                      A
 Frequencies --   3032.3610              3042.2265              3048.8832
 Red. masses --      1.0599                 1.0665                 1.0736
 Frc consts  --      5.7420                 5.8156                 5.8799
 IR Inten    --     15.0660                46.6465                 6.7712

                     94                     95                     96
                      A                      A                      A
 Frequencies --   3051.8498              3058.4361              3073.6426
 Red. masses --      1.0418                 1.0917                 1.0295
 Frc consts  --      5.7167                 6.0167                 5.7306
 IR Inten    --     28.5980                44.0566                43.8356

                     97                     98                     99
                      A                      A                      A
 Frequencies --   3074.5397              3080.8497              3112.8225
 Red. masses --      1.1004                 1.1006                 1.1020
 Frc consts  --      6.1284                 6.1551                 6.2914
 IR Inten    --     10.3551                70.8720                50.4150

                    100                    101                    102
                      A                      A                      A
 Frequencies --   3132.0968              3143.8820              3146.8504
 Red. masses --      1.1010                 1.0928                 1.1072
 Frc consts  --      6.3639                 6.3638                 6.4599
 IR Inten    --     38.9633                13.9016                21.2264

                    103                    104                    105
                      A                      A                      A
 Frequencies --   3179.2566              3181.7865              3186.7880
 Red. masses --      1.1071                 1.0862                 1.0886
 Frc consts  --      6.5930                 6.4791                 6.5136
 IR Inten    --     19.8772                 1.2347                 0.5989

                    106                    107                    108
                      A                      A                      A
 Frequencies --   3191.3539              3207.6874              3219.9292
 Red. masses --      1.0895                 1.0945                 1.0928
 Frc consts  --      6.5375                 6.6352                 6.6757
 IR Inten    --     11.4547                32.7847                22.2951

 - Thermochemistry -
 -------------------
 Temperature   298.150 Kelvin.  Pressure   1.00000 Atm.
 Atom     1 has atomic number  6 and mass  12.00000

 Molecular mass:   244.14633 amu.
 Principal axes and moments of inertia in atomic units:
                           1         2         3
     Eigenvalues --  2790.744626732.370798123.18910
           X            0.99992   0.00856  -0.00917
           Y           -0.00861   0.99995  -0.00474
           Z            0.00913   0.00482   0.99995
 This molecule is an asymmetric top.
 Rotational symmetry number  1.
 Warning -- assumption of classical behavior for rotation
           may cause significant error
 Rotational temperatures (Kelvin)      0.03104     0.01287     0.01066
 Rotational constants (GHZ):           0.64669     0.26807     0.22217
 Zero-point vibrational energy     864939.1 (Joules/Mol)
                                  206.72540 (Kcal/Mol)
 Warning -- explicit consideration of  26 degrees of freedom as
           vibrations may cause significant error
 Vibrational temperatures:     48.82    68.35    96.17   115.39   130.87
          (Kelvin)            168.54   195.52   219.66   229.48   292.85
                              318.79   367.98   394.88   406.47   450.30
                              475.28   492.64   534.12   572.20   649.96
                              681.55   724.04   745.96   762.03   820.70
                              876.69   895.98  1002.67  1065.36  1093.09
                             1107.70  1123.82  1127.48  1169.40  1233.07
                             1241.64  1271.90  1284.65  1324.33  1356.29
                             1377.86  1417.10  1419.20  1455.50  1481.71
                             1492.19  1548.44  1554.13  1587.22  1605.18
                             1612.86  1622.43  1670.85  1707.16  1724.86
                             1740.50  1751.68  1759.79  1781.83  1811.68
                             1821.87  1877.22  1902.21  1913.17  1934.90
                             1942.97  1963.65  1979.98  2008.14  2028.11
                             2032.31  2041.60  2083.87  2145.27  2153.75
                             2174.59  2175.13  2181.69  2187.12  2194.48
                             2197.99  2203.93  2209.74  2213.13  2336.17
                             2390.15  2418.83  2576.75  4348.14  4351.63
                             4362.89  4377.09  4386.66  4390.93  4400.41
                             4422.29  4423.58  4432.66  4478.66  4506.39
                             4523.34  4527.62  4574.24  4577.88  4585.08
                             4591.65  4615.15  4632.76

 Zero-point correction=                           0.329438 (Hartree/Particle)
 Thermal correction to Energy=                    0.346464
 Thermal correction to Enthalpy=                  0.347409
 Thermal correction to Gibbs Free Energy=         0.284283
 Sum of electronic and zero-point Energies=           -771.950305
 Sum of electronic and thermal Energies=              -771.933279
 Sum of electronic and thermal Enthalpies=            -771.932334
 Sum of electronic and thermal Free Energies=         -771.995460

                     E (Thermal)             CV                S
                      KCal/Mol        Cal/Mol-Kelvin    Cal/Mol-Kelvin
 Total                  217.410             65.603            132.860
 Electronic               0.000              0.000              0.000
 Translational            0.889              2.981             42.379
 Rotational               0.889              2.981             33.389
 Vibrational            215.632             59.641             57.092
 Vibration     1          0.594              1.983              5.585
 Vibration     2          0.595              1.979              4.918
 Vibration     3          0.598              1.970              4.244
 Vibration     4          0.600              1.963              3.886
 Vibration     5          0.602              1.956              3.639
 Vibration     6          0.608              1.935              3.147
 Vibration     7          0.614              1.917              2.861
 Vibration     8          0.619              1.900              2.639
 Vibration     9          0.621              1.892              2.556
 Vibration    10          0.639              1.835              2.101
 Vibration    11          0.648              1.808              1.946
 Vibration    12          0.666              1.753              1.691
 Vibration    13          0.677              1.721              1.568
 Vibration    14          0.682              1.706              1.518
 Vibration    15          0.701              1.649              1.347
 Vibration    16          0.713              1.615              1.258
 Vibration    17          0.722              1.591              1.201
 Vibration    18          0.743              1.531              1.075
 Vibration    19          0.764              1.475              0.971
 Vibration    20          0.810              1.357              0.791
 Vibration    21          0.830              1.308              0.727
 Vibration    22          0.859              1.243              0.650
 Vibration    23          0.873              1.209              0.614
 Vibration    24          0.885              1.184              0.588
 Vibration    25          0.927              1.095              0.503
 Vibration    26          0.968              1.012              0.434

                           ! Non-Optimized Parameters !
 Normal termination of Gaussian 16 at Fri Dec 11 21:36:24 2020.

 ----------------------------------------------------------------------
 # B3LYP/6-311++G(d,p) empiricaldispersion=gd3bj scf=xqc pop=npa geom=c
 heck
 ----------------------------------------------------------------------

 --------------------------------------
 CID_70170888_JID_8633_Energie_neutraal
 --------------------------------------
 Structure from the checkpoint file:  "JID_8633.chk"
 Charge =  0 Multiplicity = 1

 SCF Done:  E(RB3LYP) =  -772.487134864     A.U. after   16 cycles
 Normal termination of Gaussian 16 at Fri Dec 11 21:43:31 2020.

 ----------------------------------------------------------------------
 # B3LYP/6-311++G(d,p) empiricaldispersion=gd3bj scf=xqc pop=npa geom=c
 heck
 ----------------------------------------------------------------------

 ------------------------------------
 CID_70170888_JID_8633_Energie_kation
 ------------------------------------
 Structure from the checkpoint file:  "JID_8633.chk"
 Charge =  1 Multiplicity = 2

 SCF Done:  E(UB3LYP) =  -772.188931396     A.U. after   25 cycles
 Normal termination of Gaussian 16 at Fri Dec 11 21:58:46 2020.
 Gaussian 16:  ES64L-G16RevA.03 25-Dec-2016

 ----------------------------------------------------------------------
 # B3LYP/6-311++G(d,p) empiricaldispersion=gd3bj scf=xqc pop=npa geom=c
 heck
 ----------------------------------------------------------------------

 -----------------------------------
 CID_70170888_JID_8633_Energie_anion
 -----------------------------------
 Structure from the checkpoint file:  "JID_8633.chk"
 Charge = -1 Multiplicity = 2

                         Standard orientation:
 ---------------------------------------------------------------------
 Center     Atomic      Atomic             Coordinates (Angstroms)
 Number     Number       Type             X           Y           Z
 ---------------------------------------------------------------------
      1          6           0       -3.330566   -1.636976    1.579028
      2          6           0       -2.464955   -2.705332    0.904758
      3          6           0       -1.812900   -2.307213   -0.429301
      4          6           0       -0.808366   -1.141648   -0.341723
      5          6           0        0.290757   -1.292388   -1.416981
      6          6           0        1.251199   -0.090044   -1.468505
      7          6           0        1.635503    0.447125   -0.107179
      8          6           0        0.746437    1.123072    0.652104
      9          6           0       -0.652460    1.317377    0.256074
     10          6           0       -1.236773    2.581888    0.425484
     11          6           0       -2.517606    2.847903   -0.048470
     12          6           0       -3.230934    1.836065   -0.690147
     13          6           0       -2.679011    0.560626   -0.815223
     14          6           0       -1.403321    0.263858   -0.328597
     15          6           0        3.013974    0.305574    0.429435
     16          8           0        3.409377    0.760561    1.486841
     17          8           0        3.812401   -0.414137   -0.398396
     18          6           0        5.156056   -0.596354    0.066137
     19          1           0       -2.749595   -0.747252    1.839663
     20          1           0       -3.774233   -2.030034    2.500975
     21          1           0       -4.148391   -1.312105    0.926003
     22          1           0       -1.668148   -3.008130    1.599050
     23          1           0       -3.073389   -3.603659    0.734048
     24          1           0       -1.265443   -3.183108   -0.801239
     25          1           0       -2.582108   -2.107284   -1.185458
     26          1           0       -0.289638   -1.249879    0.620693
     27          1           0       -0.165637   -1.420673   -2.407725
     28          1           0        0.847788   -2.213042   -1.200149
     29          1           0        0.748238    0.721405   -2.009146
     30          1           0        2.143811   -0.354348   -2.037430
     31          1           0        1.099265    1.584247    1.571939
     32          1           0       -0.659037    3.365990    0.908227
     33          1           0       -2.951972    3.835637    0.075199
     34          1           0       -4.227360    2.030528   -1.077066
     35          1           0       -3.271127   -0.218990   -1.280967
     36          1           0        5.653654    0.369102    0.191049
     37          1           0        5.163066   -1.121537    1.025034
     38          1           0        5.653832   -1.189464   -0.701614
 ---------------------------------------------------------------------

 SCF Done:  E(UB3LYP) =  -772.497942191     A.U. after   27 cycles

 The electronic state is 2-A.
 Alpha  occ. eigenvalues --  -19.01725 -18.93595 -10.12101 -10.10412 -10.06475
 Alpha  occ. eigenvalues --  -10.05484 -10.05255 -10.04768 -10.03942 -10.03681
 Alpha  occ. eigenvalues --  -10.03584 -10.03515 -10.02954 -10.02936 -10.02874
 Alpha  occ. eigenvalues --  -10.02659 -10.00505  -9.99792  -0.95343  -0.85608
 Alpha  occ. eigenvalues --   -0.72979  -0.69396  -0.67237  -0.63852  -0.61773
 Alpha  occ. eigenvalues --   -0.60474  -0.59308  -0.57063  -0.52373  -0.49675
 Alpha  occ. eigenvalues --   -0.48162  -0.46234  -0.44279  -0.42690  -0.40280
 Alpha  occ. eigenvalues --   -0.36796  -0.35914  -0.35085  -0.34438  -0.33728
 Alpha  occ. eigenvalues --   -0.33294  -0.31880  -0.31585  -0.30947  -0.29691
 Alpha  occ. eigenvalues --   -0.29088  -0.28376  -0.26887  -0.26224  -0.25871
 Alpha  occ. eigenvalues --   -0.25269  -0.24527  -0.23787  -0.23156  -0.22567
 Alpha  occ. eigenvalues --   -0.22166  -0.21626  -0.19846  -0.19462  -0.19322
 Alpha  occ. eigenvalues --   -0.18305  -0.16583  -0.13606  -0.11883  -0.11429
 Alpha  occ. eigenvalues --   -0.08656   0.04525
 Alpha virt. eigenvalues --    0.07437   0.08215   0.08697   0.09226   0.09919
 Alpha virt. eigenvalues --    0.10568   0.10947   0.11445   0.11646   0.11999
 Alpha virt. eigenvalues --    0.12310   0.12601   0.12794   0.13439   0.13604

  Beta  occ. eigenvalues --  -19.01622 -18.93348 -10.11895 -10.10417 -10.06474
  Beta  occ. eigenvalues --  -10.05479 -10.05255 -10.04781 -10.03912 -10.03717
  Beta  occ. eigenvalues --  -10.03586 -10.03398 -10.02853 -10.02787 -10.02727
  Beta  occ. eigenvalues --  -10.02678 -10.00288  -9.99451  -0.95065  -0.85202
  Beta  occ. eigenvalues --   -0.72737  -0.69309  -0.66987  -0.63539  -0.61422
  Beta  occ. eigenvalues --   -0.60290  -0.59225  -0.56838  -0.52274  -0.49149
  Beta  occ. eigenvalues --   -0.48085  -0.46013  -0.44024  -0.42572  -0.40053
  Beta  occ. eigenvalues --   -0.36655  -0.35751  -0.34751  -0.34342  -0.33666
  Beta  occ. eigenvalues --   -0.33119  -0.31726  -0.31423  -0.30719  -0.29587
  Beta  occ. eigenvalues --   -0.28953  -0.28293  -0.26762  -0.25985  -0.25467
  Beta  occ. eigenvalues --   -0.24829  -0.24295  -0.23511  -0.22971  -0.22482
  Beta  occ. eigenvalues --   -0.21928  -0.21471  -0.19671  -0.19339  -0.19139
  Beta  occ. eigenvalues --   -0.18060  -0.15622  -0.12372  -0.11567  -0.10790
  Beta  occ. eigenvalues --   -0.07025
  Beta virt. eigenvalues --    0.07387   0.08192   0.08648   0.09137   0.09831
  Beta virt. eigenvalues --    0.10245   0.10541   0.10922   0.11411   0.11691
  Beta virt. eigenvalues --    0.12056   0.12309   0.12637   0.12811   0.13572

 Mulliken charges and spin densities:
               1          2
     1  C   -0.574472   0.001362
     2  C   -0.390417  -0.008835
     3  C    0.079147  -0.002862
     4  C   -0.107627  -0.045819
     5  C   -0.427998   0.031665
     6  C   -1.030091   0.001631
     7  C    0.386783   0.152045
     8  C   -0.708436   0.275709
     9  C    0.388929   0.030096
    10  C   -0.292109   0.113870
    11  C   -0.381790  -0.015884
    12  C   -0.471507   0.170883
    13  C   -0.398519  -0.040516
    14  C    0.904891   0.071008
    15  C   -0.031409   0.097412
    16  O   -0.359913   0.089033
    17  O   -0.092354   0.015548
    18  C   -0.207981  -0.002906
    19  H    0.164836   0.001612
    20  H    0.122598   0.000472
    21  H    0.133766  -0.000348
    22  H    0.121601   0.000191
    23  H    0.125590   0.002799
    24  H    0.146619   0.011366
    25  H    0.126697  -0.000511
    26  H    0.249442   0.006126
    27  H    0.108058   0.016353
    28  H    0.093585  -0.009394
    29  H    0.111816   0.013647
    30  H    0.156123   0.016738
    31  H    0.208099  -0.016569
    32  H    0.109381   0.015802
    33  H    0.112054   0.001188
    34  H    0.117153  -0.014141
    35  H    0.083289   0.015447
    36  H    0.157435   0.002825
    37  H    0.154460   0.003431
    38  H    0.112271  -0.000475
 Sum of Mulliken charges =  -1.00000   1.00000

 Dipole moment (field-independent basis, Debye):
    X=             -2.1192    Y=             -3.9981    Z=             -1.7572  Tot=              4.8542
 Quadrupole moment (field-independent basis, Debye-Ang):
   XX=           -147.5075   YY=           -126.6283   ZZ=           -126.8417
   XY=             -1.5012   XZ=             -7.3839   YZ=             -1.8058

 Summary of Natural Population Analysis:

                                       Natural Population
                Natural  -----------------------------------------------
    Atom  No    Charge         Core      Valence    Rydberg      Total
 -----------------------------------------------------------------------
      C    1   -0.28782      0.99967     2.28370    0.00445     3.28782
      C    2   -0.18478      0.99964     2.17899    0.00614     3.18478
      C    3   -0.17975      0.99962     2.17268    0.00746     3.17975
      C    4   -0.12992      0.99956     2.11732    0.01304     3.12992
      C    5   -0.16517      0.99962     2.15894    0.00661     3.16517
      C    6   -0.20432      0.99961     2.19739    0.00731     3.20432
      C    7   -0.03448      0.99942     2.02452    0.01054     3.03448
      C    8   -0.00738      0.99947     1.99934    0.00857     3.00738
      C    9   -0.02577      0.99948     2.01481    0.01148     3.02577
      C   10   -0.06849      0.99952     2.06069    0.00828     3.06849
      C   11   -0.12426      0.99957     2.11571    0.00898     3.12426
      C   12   -0.06896      0.99957     2.05992    0.00947     3.06896
      C   13   -0.12420      0.99952     2.11670    0.00799     3.12420
      C   14    0.02191      0.99946     1.96653    0.01209     2.97809
      C   15    0.41988      0.99962     1.55661    0.02390     2.58012
      O   16   -0.31165      0.99987     3.30577    0.00601     4.31165
      O   17   -0.28093      0.99986     3.27263    0.00845     4.28093
      C   18   -0.10529      0.99962     2.09683    0.00885     3.10529
      H   19    0.10873      0.00000     0.39043    0.00085     0.39127
      H   20    0.08991      0.00000     0.40915    0.00094     0.41009
      H   21    0.09580      0.00000     0.40325    0.00095     0.40420
      H   22    0.09101      0.00000     0.40785    0.00115     0.40899
      H   23    0.08608      0.00000     0.41270    0.00122     0.41392
      H   24    0.09431      0.00000     0.40458    0.00111     0.40569
      H   25    0.09076      0.00000     0.40816    0.00108     0.40924
      H   26    0.10743      0.00000     0.39129    0.00128     0.39257
      H   27    0.08675      0.00000     0.41136    0.00189     0.41325
      H   28    0.08902      0.00000     0.40991    0.00107     0.41098
      H   29    0.09892      0.00000     0.39943    0.00166     0.40108
      H   30    0.10612      0.00000     0.39281    0.00106     0.39388
      H   31    0.10219      0.00000     0.39667    0.00114     0.39781
      H   32    0.09311      0.00000     0.40548    0.00142     0.40689
      H   33    0.09050      0.00000     0.40845    0.00105     0.40950
      H   34    0.08684      0.00000     0.41176    0.00140     0.41316
      H   35    0.09110      0.00000     0.40747    0.00143     0.40890
      H   36    0.08624      0.00000     0.41241    0.00134     0.41376
      H   37    0.08637      0.00000     0.41227    0.00136     0.41363
      H   38    0.08021      0.00000     0.41889    0.00089     0.41979
 =======================================================================
   * Total *    0.00000     17.99269    47.81342    0.19389    66.00000

 Normal termination of Gaussian 16 at Fri Dec 11 22:15:14 2020.
