 Gaussian 16, Revision A.03,

 -----------------------------------------------------------
 # opt freq B3LYP/6-31G(d) empiricaldispersion=gd3bj scf=xqc
 -----------------------------------------------------------

 -------------------------------
 CID_62059247_JID_10888_neutraal
 -------------------------------
 Symbolic Z-matrix:
 Charge =  0 Multiplicity = 1

 SCF Done:  E(RB3LYP) =  -897.785306586     A.U. after   15 cycles
 SCF Done:  E(RB3LYP) =  -897.787924559     A.U. after   14 cycles
 SCF Done:  E(RB3LYP) =  -897.788122956     A.U. after   13 cycles
 SCF Done:  E(RB3LYP) =  -897.790532978     A.U. after   13 cycles
 SCF Done:  E(RB3LYP) =  -897.792936800     A.U. after   14 cycles
 SCF Done:  E(RB3LYP) =  -897.794262930     A.U. after   14 cycles
 SCF Done:  E(RB3LYP) =  -897.786940621     A.U. after   14 cycles
 SCF Done:  E(RB3LYP) =  -897.793188101     A.U. after   14 cycles
 SCF Done:  E(RB3LYP) =  -897.794748672     A.U. after   11 cycles
 SCF Done:  E(RB3LYP) =  -897.795160385     A.U. after   13 cycles
 SCF Done:  E(RB3LYP) =  -897.796063706     A.U. after    8 cycles
 SCF Done:  E(RB3LYP) =  -897.796089491     A.U. after   11 cycles
 SCF Done:  E(RB3LYP) =  -897.796098730     A.U. after   10 cycles
 SCF Done:  E(RB3LYP) =  -897.796100027     A.U. after   10 cycles
 SCF Done:  E(RB3LYP) =  -897.796100091     A.U. after    7 cycles
 SCF Done:  E(RB3LYP) =  -897.796100122     A.U. after    7 cycles
 Optimization completed.
    -- Stationary point found.
 Normal termination of Gaussian 16 at Sat Dec 12 16:51:44 2020.

 --------------------------------------------------------------------
 #N Geom=AllCheck Guess=TCheck SCRF=Check GenChk RB3LYP/6-31G(d) Freq
 --------------------------------------------------------------------

 Structure from the checkpoint file:  "JID_10888.chk"
 -------------------------------
 CID_62059247_JID_10888_neutraal
 -------------------------------
 Charge =  0 Multiplicity = 1

 SCF Done:  E(RB3LYP) =  -897.796100122     A.U. after    1 cycles

  Exact polarizability: 185.700   3.201 184.731 -34.839 -12.549 146.367
 Approx polarizability: 264.270  12.391 308.264 -73.296 -29.785 241.892

                      1                      2                      3
                      A                      A                      A
 Frequencies --     28.9853                40.8283                55.5532
 Red. masses --      4.4641                 4.7261                 6.3831
 Frc consts  --      0.0022                 0.0046                 0.0116
 IR Inten    --      0.2772                 1.4655                 0.1475

                      4                      5                      6
                      A                      A                      A
 Frequencies --     84.1093                89.7725                99.5361
 Red. masses --      5.7428                 5.2259                 5.4017
 Frc consts  --      0.0239                 0.0248                 0.0315
 IR Inten    --      3.3154                 0.6031                 2.7103

                      7                      8                      9
                      A                      A                      A
 Frequencies --    118.2263               148.4943               154.9042
 Red. masses --      5.7116                 6.2618                 5.2416
 Frc consts  --      0.0470                 0.0814                 0.0741
 IR Inten    --      1.2797                 5.6814                 2.6369

                     10                     11                     12
                      A                      A                      A
 Frequencies --    188.1779               205.9193               231.5899
 Red. masses --      2.6311                 3.3607                 3.1085
 Frc consts  --      0.0549                 0.0840                 0.0982
 IR Inten    --      2.1608                 1.3972                 5.9914

                     13                     14                     15
                      A                      A                      A
 Frequencies --    254.0926               299.3547               325.3453
 Red. masses --      3.4887                 2.8490                 3.4596
 Frc consts  --      0.1327                 0.1504                 0.2158
 IR Inten    --      1.8298                 1.3937                 5.4875

                     16                     17                     18
                      A                      A                      A
 Frequencies --    347.6478               364.5899               377.2588
 Red. masses --      5.0789                 2.9849                 8.5380
 Frc consts  --      0.3617                 0.2338                 0.7160
 IR Inten    --      0.6872                 2.9169                 1.5787

                     19                     20                     21
                      A                      A                      A
 Frequencies --    402.2496               410.2339               439.3605
 Red. masses --      3.9999                 2.7246                 1.8785
 Frc consts  --      0.3813                 0.2702                 0.2137
 IR Inten    --      1.5044                 4.6234                 4.6722

                     22                     23                     24
                      A                      A                      A
 Frequencies --    459.0716               487.8162               514.5110
 Red. masses --      2.4592                 4.2134                 3.2408
 Frc consts  --      0.3054                 0.5907                 0.5055
 IR Inten    --      2.2245                23.3812                10.4620

                     25                     26                     27
                      A                      A                      A
 Frequencies --    526.2921               534.1246               581.0776
 Red. masses --      2.7946                 1.7396                 4.4138
 Frc consts  --      0.4561                 0.2924                 0.8781
 IR Inten    --     23.2810                 0.3974                 1.4269

                     28                     29                     30
                      A                      A                      A
 Frequencies --    594.6362               605.6881               619.9345
 Red. masses --      3.8050                 2.9957                 2.8840
 Frc consts  --      0.7927                 0.6475                 0.6530
 IR Inten    --     14.0252                25.1489                53.2267

                     31                     32                     33
                      A                      A                      A
 Frequencies --    649.7126               704.5721               735.2945
 Red. masses --      5.5616                 2.3204                 3.4854
 Frc consts  --      1.3832                 0.6787                 1.1103
 IR Inten    --      2.5978                63.8594                 2.1132

                     34                     35                     36
                      A                      A                      A
 Frequencies --    744.3366               774.9131               784.6902
 Red. masses --      3.1359                 1.4129                 2.7415
 Frc consts  --      1.0237                 0.4999                 0.9946
 IR Inten    --      6.3948                54.3290                 0.3709

                     37                     38                     39
                      A                      A                      A
 Frequencies --    798.4324               806.8482               862.5432
 Red. masses --      5.3489                 1.8875                 2.8568
 Frc consts  --      2.0091                 0.7240                 1.2523
 IR Inten    --      2.5773                 8.3374                 3.1313

                     40                     41                     42
                      A                      A                      A
 Frequencies --    869.5609               889.5960               914.9416
 Red. masses --      1.9790                 1.3813                 2.6341
 Frc consts  --      0.8817                 0.6441                 1.2992
 IR Inten    --      4.1652                 0.8739                 4.6626

                     43                     44                     45
                      A                      A                      A
 Frequencies --    922.8690               931.7554               947.1747
 Red. masses --      2.5817                 2.0348                 2.3606
 Frc consts  --      1.2955                 1.0408                 1.2477
 IR Inten    --      2.7805                 4.1276                11.3086

                     46                     47                     48
                      A                      A                      A
 Frequencies --    956.5040               984.9846               989.5587
 Red. masses --      1.3463                 2.4817                 1.2700
 Frc consts  --      0.7257                 1.4186                 0.7327
 IR Inten    --      2.4558                 7.4908                 0.2881

                     49                     50                     51
                      A                      A                      A
 Frequencies --   1024.7199              1046.7670              1068.9906
 Red. masses --      2.8372                 2.3239                 2.3128
 Frc consts  --      1.7553                 1.5002                 1.5571
 IR Inten    --     10.0527                11.0301                 9.7258

                     52                     53                     54
                      A                      A                      A
 Frequencies --   1075.9525              1102.7641              1126.3524
 Red. masses --      2.1759                 2.1892                 2.3400
 Frc consts  --      1.4842                 1.5686                 1.7491
 IR Inten    --      2.2493                27.1394                 4.4326

                     55                     56                     57
                      A                      A                      A
 Frequencies --   1143.1421              1153.0971              1198.4795
 Red. masses --      1.9764                 3.1399                 1.5823
 Frc consts  --      1.5217                 2.4598                 1.3391
 IR Inten    --     16.4306                81.0242                40.3134

                     58                     59                     60
                      A                      A                      A
 Frequencies --   1199.1842              1220.2230              1221.7747
 Red. masses --      1.1093                 2.0996                 2.0455
 Frc consts  --      0.9399                 1.8419                 1.7990
 IR Inten    --      7.6367                13.9029                28.1618

                     61                     62                     63
                      A                      A                      A
 Frequencies --   1255.9418              1262.9242              1269.2608
 Red. masses --      1.3871                 2.4706                 1.4278
 Frc consts  --      1.2891                 2.3218                 1.3553
 IR Inten    --     33.6888                48.1757                11.8152

                     64                     65                     66
                      A                      A                      A
 Frequencies --   1283.3591              1300.3769              1314.0848
 Red. masses --      1.1945                 1.6724                 1.3645
 Frc consts  --      1.1591                 1.6662                 1.3883
 IR Inten    --      5.8622               100.4911                85.7166

                     67                     68                     69
                      A                      A                      A
 Frequencies --   1333.3604              1335.1904              1348.3599
 Red. masses --      1.2855                 2.1591                 4.3310
 Frc consts  --      1.3466                 2.2678                 4.6392
 IR Inten    --      9.8173                 9.6297                25.5688

                     70                     71                     72
                      A                      A                      A
 Frequencies --   1390.2349              1395.5532              1404.3854
 Red. masses --      1.6473                 1.2893                 1.3267
 Frc consts  --      1.8758                 1.4794                 1.5417
 IR Inten    --     77.4673                 4.8134                 6.3728

                     73                     74                     75
                      A                      A                      A
 Frequencies --   1410.6913              1417.9357              1434.6620
 Red. masses --      1.3670                 1.2988                 1.4647
 Frc consts  --      1.6028                 1.5386                 1.7762
 IR Inten    --     22.3514                18.8450                85.4789

                     76                     77                     78
                      A                      A                      A
 Frequencies --   1437.5719              1439.5421              1449.6193
 Red. masses --      1.3213                 1.3195                 1.4161
 Frc consts  --      1.6088                 1.6110                 1.7533
 IR Inten    --     22.5705                 5.7461                10.3498

                     79                     80                     81
                      A                      A                      A
 Frequencies --   1474.2118              1492.2584              1495.3814
 Red. masses --      1.8029                 1.0857                 1.1081
 Frc consts  --      2.3086                 1.4245                 1.4599
 IR Inten    --      8.5081                 4.2663                 2.7115

                     82                     83                     84
                      A                      A                      A
 Frequencies --   1498.1985              1504.1436              1511.0958
 Red. masses --      1.1065                 2.3701                 1.1388
 Frc consts  --      1.4633                 3.1594                 1.5320
 IR Inten    --      6.4940                26.4252                18.3953

                     85                     86                     87
                      A                      A                      A
 Frequencies --   1516.3011              1532.7752              1541.2491
 Red. masses --      1.1041                 1.0814                 1.0925
 Frc consts  --      1.4956                 1.4970                 1.5290
 IR Inten    --     12.0512                 7.8045                 4.1622

                     88                     89                     90
                      A                      A                      A
 Frequencies --   1552.3070              1633.1520              1662.9368
 Red. masses --      2.5297                 5.3843                 5.9507
 Frc consts  --      3.5915                 8.4612                 9.6955
 IR Inten    --     98.4362                21.2245                36.8823

                     91                     92                     93
                      A                      A                      A
 Frequencies --   1782.9047              2345.0999              2977.0382
 Red. masses --      7.9154                12.6729                 1.0719
 Frc consts  --     14.8245                41.0628                 5.5971
 IR Inten    --    331.5285                31.3435                57.4259

                     94                     95                     96
                      A                      A                      A
 Frequencies --   2983.6348              3001.4717              3004.8754
 Red. masses --      1.0715                 1.0710                 1.0681
 Frc consts  --      5.6198                 5.6849                 5.6823
 IR Inten    --     59.4375                52.4936                33.2301

                     97                     98                     99
                      A                      A                      A
 Frequencies --   3012.6883              3036.6897              3041.3209
 Red. masses --      1.0646                 1.0724                 1.0727
 Frc consts  --      5.6929                 5.8267                 5.8458
 IR Inten    --    131.1329                60.9879                18.2238

                    100                    101                    102
                      A                      A                      A
 Frequencies --   3049.7419              3091.1025              3096.4887
 Red. masses --      1.1010                 1.0935                 1.0917
 Frc consts  --      6.0335                 6.1561                 6.1674
 IR Inten    --     23.0284                53.3588                18.5167

                    103                    104                    105
                      A                      A                      A
 Frequencies --   3113.4061              3116.8572              3137.4784
 Red. masses --      1.0941                 1.0915                 1.0913
 Frc consts  --      6.2487                 6.2474                 6.3291
 IR Inten    --     14.5054                11.3682                17.7905

                    106                    107                    108
                      A                      A                      A
 Frequencies --   3162.0827              3198.9971              3212.8756
 Red. masses --      1.0887                 1.0869                 1.0903
 Frc consts  --      6.4136                 6.5534                 6.6308
 IR Inten    --     13.5320                 2.7783                 7.9448

                    109                    110                    111
                      A                      A                      A
 Frequencies --   3225.2274              3230.0671              3558.5122
 Red. masses --      1.0943                 1.0956                 1.0754
 Frc consts  --      6.7066                 6.7348                 8.0234
 IR Inten    --     12.1669                 5.0640                29.7063

 - Thermochemistry -
 -------------------
 Temperature   298.150 Kelvin.  Pressure   1.00000 Atm.
 Atom     1 has atomic number  6 and mass  12.00000

 Molecular mass:   273.14773 amu.
 Principal axes and moments of inertia in atomic units:
                           1         2         3
     Eigenvalues --  3407.060526185.095506689.15186
           X            0.99984   0.01748  -0.00346
           Y           -0.01750   0.99982  -0.00686
           Z            0.00334   0.00692   0.99997
 This molecule is an asymmetric top.
 Rotational symmetry number  1.
 Warning -- assumption of classical behavior for rotation
           may cause significant error
 Rotational temperatures (Kelvin)      0.02542     0.01400     0.01295
 Rotational constants (GHZ):           0.52971     0.29179     0.26980
 Zero-point vibrational energy     865586.4 (Joules/Mol)
                                  206.88011 (Kcal/Mol)
 Warning -- explicit consideration of  30 degrees of freedom as
           vibrations may cause significant error
 Vibrational temperatures:     41.70    58.74    79.93   121.01   129.16
          (Kelvin)            143.21   170.10   213.65   222.87   270.75
                              296.27   333.21   365.58   430.70   468.10
                              500.19   524.56   542.79   578.75   590.24
                              632.14   660.50   701.86   740.27   757.22
                              768.49   836.04   855.55   871.45   891.95
                              934.79  1013.72  1057.92  1070.93  1114.93
                             1128.99  1148.77  1160.87  1241.01  1251.10
                             1279.93  1316.40  1327.80  1340.59  1362.77
                             1376.20  1417.17  1423.75  1474.34  1506.06
                             1538.04  1548.06  1586.63  1620.57  1644.73
                             1659.05  1724.34  1725.36  1755.63  1757.86
                             1807.02  1817.07  1826.18  1846.47  1870.95
                             1890.67  1918.41  1921.04  1939.99  2000.24
                             2007.89  2020.60  2029.67  2040.09  2064.16
                             2068.35  2071.18  2085.68  2121.06  2147.03
                             2151.52  2155.57  2164.13  2174.13  2181.62
                             2205.32  2217.51  2233.42  2349.74  2392.60
                             2565.20  3374.08  4283.29  4292.79  4318.45
                             4323.35  4334.59  4369.12  4375.78  4387.90
                             4447.41  4455.16  4479.50  4484.46  4514.13
                             4549.53  4602.64  4622.61  4640.38  4647.35
                             5119.91

 Zero-point correction=                           0.329684 (Hartree/Particle)
 Thermal correction to Energy=                    0.347663
 Thermal correction to Enthalpy=                  0.348607
 Thermal correction to Gibbs Free Energy=         0.283360
 Sum of electronic and zero-point Energies=           -897.466416
 Sum of electronic and thermal Energies=              -897.448437
 Sum of electronic and thermal Enthalpies=            -897.447493
 Sum of electronic and thermal Free Energies=         -897.512740

                     E (Thermal)             CV                S
                      KCal/Mol        Cal/Mol-Kelvin    Cal/Mol-Kelvin
 Total                  218.162             70.068            137.325
 Electronic               0.000              0.000              0.000
 Translational            0.889              2.981             42.713
 Rotational               0.889              2.981             33.310
 Vibrational            216.385             64.107             61.301
 Vibration     1          0.593              1.984              5.898
 Vibration     2          0.594              1.981              5.218
 Vibration     3          0.596              1.975              4.609
 Vibration     4          0.601              1.960              3.793
 Vibration     5          0.602              1.956              3.665
 Vibration     6          0.604              1.949              3.463
 Vibration     7          0.608              1.934              3.129
 Vibration     8          0.618              1.904              2.691
 Vibration     9          0.620              1.897              2.611
 Vibration    10          0.633              1.856              2.246
 Vibration    11          0.640              1.831              2.080
 Vibration    12          0.653              1.793              1.867
 Vibration    13          0.665              1.756              1.702
 Vibration    14          0.692              1.675              1.421
 Vibration    15          0.709              1.625              1.283
 Vibration    16          0.725              1.580              1.177
 Vibration    17          0.738              1.545              1.102
 Vibration    18          0.748              1.519              1.050
 Vibration    19          0.768              1.465              0.954
 Vibration    20          0.774              1.448              0.926
 Vibration    21          0.799              1.384              0.829
 Vibration    22          0.817              1.341              0.769
 Vibration    23          0.844              1.277              0.689
 Vibration    24          0.870              1.218              0.623
 Vibration    25          0.881              1.192              0.596
 Vibration    26          0.889              1.175              0.578
 Vibration    27          0.938              1.072              0.483
 Vibration    28          0.952              1.043              0.459
 Vibration    29          0.964              1.020              0.440
 Vibration    30          0.980              0.990              0.417

 Optimization completed.
    -- Stationary point found.
 Normal termination of Gaussian 16 at Sat Dec 12 17:14:50 2020.

 ----------------------------------------------------------------------
 # B3LYP/6-311++G(d,p) empiricaldispersion=gd3bj scf=xqc pop=npa geom=c
 heck
 ----------------------------------------------------------------------

 ---------------------------------------
 CID_62059247_JID_10888_Energie_neutraal
 ---------------------------------------
 Structure from the checkpoint file:  "JID_10888.chk"
 Charge =  0 Multiplicity = 1

 SCF Done:  E(RB3LYP) =  -898.041956120     A.U. after   15 cycles
 Normal termination of Gaussian 16 at Sat Dec 12 17:23:24 2020.

 ----------------------------------------------------------------------
 # B3LYP/6-311++G(d,p) empiricaldispersion=gd3bj scf=xqc pop=npa geom=c
 heck
 ----------------------------------------------------------------------

 -------------------------------------
 CID_62059247_JID_10888_Energie_kation
 -------------------------------------
 Structure from the checkpoint file:  "JID_10888.chk"
 Charge =  1 Multiplicity = 2

 SCF Done:  E(UB3LYP) =  -897.769877771     A.U. after   25 cycles
 Normal termination of Gaussian 16 at Sat Dec 12 17:42:59 2020.
 Gaussian 16:  ES64L-G16RevA.03 25-Dec-2016

 ----------------------------------------------------------------------
 # B3LYP/6-311++G(d,p) empiricaldispersion=gd3bj scf=xqc pop=npa geom=c
 heck
 ----------------------------------------------------------------------

 ------------------------------------
 CID_62059247_JID_10888_Energie_anion
 ------------------------------------
 Structure from the checkpoint file:  "JID_10888.chk"
 Charge = -1 Multiplicity = 2

                         Standard orientation:
 ---------------------------------------------------------------------
 Center     Atomic      Atomic             Coordinates (Angstroms)
 Number     Number       Type             X           Y           Z
 ---------------------------------------------------------------------
      1          6           0        2.345718    1.588977   -0.520883
      2          6           0        3.302543    0.478207   -0.050358
      3          7           0        2.730089   -0.631063    0.695538
      4          6           0        2.214962   -0.322398    2.004539
      5          6           0        0.794877    0.310421    2.065768
      6          8           0        0.451491    1.066604    0.922576
      7          6           0        1.382617    2.086301    0.553210
      8          6           0        2.331174   -1.855255    0.048302
      9          6           0        0.851022   -1.999425   -0.380952
     10          6           0        0.512446   -1.108333   -1.558100
     11          8           0        1.312877   -0.895092   -2.457683
     12          7           0       -0.735896   -0.502160   -1.612088
     13          6           0       -1.766725   -0.502579   -0.662513
     14          6           0       -2.261841   -1.687729   -0.108242
     15          6           0       -3.291272   -1.654803    0.829787
     16          6           0       -3.874443   -0.443159    1.207052
     17          6           0       -3.417646    0.741592    0.640357
     18          6           0       -2.363394    0.720857   -0.282586
     19          6           0       -1.867381    1.940277   -0.837861
     20          7           0       -1.454085    2.915390   -1.320064
     21          1           0        1.758777    1.240591   -1.373973
     22          1           0        2.947410    2.438625   -0.875700
     23          1           0        3.823809    0.066229   -0.920439
     24          1           0        4.068874    0.938633    0.594914
     25          1           0        2.925653    0.369032    2.477719
     26          1           0        2.210669   -1.234052    2.620658
     27          1           0        0.721144    0.927239    2.978059
     28          1           0        0.020534   -0.460830    2.132823
     29          1           0        1.919195    2.451796    1.442816
     30          1           0        0.783804    2.912276    0.159302
     31          1           0        2.954937   -1.992851   -0.839049
     32          1           0        2.540190   -2.691463    0.733296
     33          1           0        0.688260   -3.040342   -0.695001
     34          1           0        0.189647   -1.815842    0.465145
     35          1           0       -0.758485    0.237345   -2.307480
     36          1           0       -1.848868   -2.635408   -0.433794
     37          1           0       -3.655990   -2.587377    1.250004
     38          1           0       -4.684120   -0.423514    1.929071
     39          1           0       -3.857078    1.694934    0.913682
 ---------------------------------------------------------------------

 SCF Done:  E(UB3LYP) =  -898.052290911     A.U. after   31 cycles

 The electronic state is 2-A.
 Alpha  occ. eigenvalues --  -19.01048 -18.96892 -14.21895 -14.19987 -14.15239
 Alpha  occ. eigenvalues --  -10.15111 -10.10982 -10.10357 -10.09971 -10.09488
 Alpha  occ. eigenvalues --  -10.09456 -10.07952 -10.06323 -10.05520 -10.05359
 Alpha  occ. eigenvalues --  -10.04667 -10.04331 -10.04288 -10.03841 -10.02913
 Alpha  occ. eigenvalues --   -0.92542  -0.92293  -0.82277  -0.81221  -0.75673
 Alpha  occ. eigenvalues --   -0.71651  -0.68283  -0.66710  -0.63136  -0.61564
 Alpha  occ. eigenvalues --   -0.61011  -0.58933  -0.54951  -0.50829  -0.49836
 Alpha  occ. eigenvalues --   -0.47979  -0.46784  -0.43978  -0.42480  -0.40142
 Alpha  occ. eigenvalues --   -0.39750  -0.38477  -0.37249  -0.36590  -0.35729
 Alpha  occ. eigenvalues --   -0.34107  -0.33945  -0.32865  -0.32302  -0.31478
 Alpha  occ. eigenvalues --   -0.30659  -0.30294  -0.30001  -0.28830  -0.27321
 Alpha  occ. eigenvalues --   -0.26664  -0.26231  -0.25481  -0.24672  -0.24358
 Alpha  occ. eigenvalues --   -0.23897  -0.23454  -0.23039  -0.21677  -0.20751
 Alpha  occ. eigenvalues --   -0.19823  -0.18766  -0.17460  -0.15069  -0.14510
 Alpha  occ. eigenvalues --   -0.12653  -0.10340  -0.10004   0.04372
 Alpha virt. eigenvalues --    0.06829   0.07777   0.08442   0.08791   0.09734
 Alpha virt. eigenvalues --    0.10046   0.10501   0.10525   0.11081   0.11589
 Alpha virt. eigenvalues --    0.12269   0.12501   0.13207   0.13437   0.13808

  Beta  occ. eigenvalues --  -19.01043 -18.96800 -14.21948 -14.19988 -14.14910
  Beta  occ. eigenvalues --  -10.15008 -10.10981 -10.10355 -10.09968 -10.09472
  Beta  occ. eigenvalues --  -10.09455 -10.07736 -10.06331 -10.05517 -10.05360
  Beta  occ. eigenvalues --  -10.04363 -10.04362 -10.04221 -10.03849 -10.02528
  Beta  occ. eigenvalues --   -0.92509  -0.92149  -0.82274  -0.81062  -0.75192
  Beta  occ. eigenvalues --   -0.71267  -0.68277  -0.66672  -0.62542  -0.61338
  Beta  occ. eigenvalues --   -0.60846  -0.58923  -0.54893  -0.50094  -0.49670
  Beta  occ. eigenvalues --   -0.47973  -0.46738  -0.43866  -0.42306  -0.40104
  Beta  occ. eigenvalues --   -0.39717  -0.38237  -0.37202  -0.36511  -0.35711
  Beta  occ. eigenvalues --   -0.34028  -0.33754  -0.32672  -0.32134  -0.31444
  Beta  occ. eigenvalues --   -0.30592  -0.30217  -0.29932  -0.28749  -0.27109
  Beta  occ. eigenvalues --   -0.26522  -0.25766  -0.25426  -0.24535  -0.23869
  Beta  occ. eigenvalues --   -0.23755  -0.23333  -0.22799  -0.21244  -0.19941
  Beta  occ. eigenvalues --   -0.19301  -0.18566  -0.16854  -0.15029  -0.14432
  Beta  occ. eigenvalues --   -0.11294  -0.10016  -0.09118
  Beta virt. eigenvalues --    0.06797   0.07745   0.08381   0.08725   0.09738
  Beta virt. eigenvalues --    0.10052   0.10117   0.10485   0.10785   0.11069
  Beta virt. eigenvalues --    0.11658   0.12197   0.12488   0.13366   0.13400

 Mulliken charges and spin densities:
               1          2
     1  C   -0.210827   0.028631
     2  C   -0.302304  -0.060729
     3  N    0.012230   0.024608
     4  C   -0.281768   0.006623
     5  C   -0.276410  -0.065288
     6  O    0.162359   0.008583
     7  C   -0.363086  -0.018085
     8  C   -0.385962  -0.385204
     9  C    0.200785   0.142975
    10  C   -0.291134   0.047871
    11  O   -0.290655   0.031840
    12  N   -0.157072  -0.023856
    13  C    0.290391   0.057020
    14  C   -0.068890  -0.081974
    15  C   -0.376352   0.367909
    16  C   -0.344452  -0.012199
    17  C   -0.369120   0.133701
    18  C    1.259129   0.219596
    19  C   -1.380985  -0.088338
    20  N   -0.282285   0.176200
    21  H    0.192561   0.000433
    22  H    0.142012  -0.001292
    23  H    0.140046   0.002393
    24  H    0.119523   0.005416
    25  H    0.133859   0.014106
    26  H    0.032246   0.099748
    27  H    0.116627  -0.007259
    28  H    0.152342   0.002369
    29  H    0.087032  -0.000557
    30  H    0.178841   0.012348
    31  H    0.198130  -0.005824
    32  H   -0.029402   0.172871
    33  H    0.009046   0.183562
    34  H    0.197626  -0.032868
    35  H    0.303663   0.011415
    36  H    0.147518   0.011303
    37  H    0.069772   0.024698
    38  H    0.117545   0.001115
    39  H    0.147421  -0.003860
 Sum of Mulliken charges =  -1.00000   1.00000

 Dipole moment (field-independent basis, Debye):
    X=              4.4888    Y=             -1.6778    Z=              4.1654  Tot=              6.3494
 Quadrupole moment (field-independent basis, Debye-Ang):
   XX=           -157.8348   YY=           -151.6561   ZZ=           -143.1187
   XY=              8.8647   XZ=              2.3050   YZ=              7.3549

 Summary of Natural Population Analysis:

                                       Natural Population
                Natural  -----------------------------------------------
    Atom  No    Charge         Core      Valence    Rydberg      Total
 -----------------------------------------------------------------------
      C    1   -0.21338      0.99962     2.20750    0.00626     3.21338
      C    2   -0.07360      0.99961     2.06464    0.00935     3.07360
      N    3   -0.28571      0.99970     2.77177    0.01423     3.78571
      C    4   -0.09846      0.99962     2.08766    0.01118     3.09846
      C    5   -0.01622      0.99959     2.00408    0.01255     3.01622
      O    6   -0.29930      0.99989     3.28618    0.01323     4.29930
      C    7   -0.01431      0.99958     2.00425    0.01048     3.01431
      C    8   -0.07329      0.99961     2.06096    0.01272     3.07329
      C    9   -0.24760      0.99958     2.23938    0.00864     3.24760
      C   10    0.36084      0.99967     1.61556    0.02393     2.63916
      O   11   -0.32587      0.99988     3.32030    0.00569     4.32587
      N   12   -0.31491      0.99964     2.80568    0.00960     3.81491
      C   13    0.13222      0.99945     1.85672    0.01161     2.86778
      C   14   -0.14034      0.99953     2.13063    0.01018     3.14034
      C   15   -0.02871      0.99958     2.01979    0.00934     3.02871
      C   16   -0.12241      0.99957     2.11404    0.00880     3.12241
      C   17   -0.05495      0.99955     2.04770    0.00771     3.05495
      C   18   -0.05219      0.99938     2.04145    0.01136     3.05219
      C   19    0.14949      0.99964     1.83145    0.01942     2.85051
      N   20   -0.16722      0.99979     2.65645    0.01098     3.66722
      H   21    0.11330      0.00000     0.38495    0.00175     0.38670
      H   22    0.09149      0.00000     0.40744    0.00107     0.40851
      H   23    0.09897      0.00000     0.39969    0.00134     0.40103
      H   24    0.07992      0.00000     0.41894    0.00114     0.42008
      H   25    0.08701      0.00000     0.41154    0.00145     0.41299
      H   26    0.09357      0.00000     0.40511    0.00132     0.40643
      H   27    0.07265      0.00000     0.42630    0.00105     0.42735
      H   28    0.09274      0.00000     0.40583    0.00143     0.40726
      H   29    0.06952      0.00000     0.42924    0.00124     0.43048
      H   30    0.10533      0.00000     0.39344    0.00123     0.39467
      H   31    0.10239      0.00000     0.39647    0.00114     0.39761
      H   32    0.08568      0.00000     0.41324    0.00108     0.41432
      H   33    0.10719      0.00000     0.39133    0.00148     0.39281
      H   34    0.11139      0.00000     0.38660    0.00201     0.38861
      H   35    0.20203      0.00000     0.29636    0.00161     0.29797
      H   36    0.09699      0.00000     0.40163    0.00139     0.40301
      H   37    0.08804      0.00000     0.41096    0.00099     0.41196
      H   38    0.09207      0.00000     0.40698    0.00095     0.40793
      H   39    0.09562      0.00000     0.40353    0.00085     0.40438
 =======================================================================
   * Total *   -0.00000     19.99245    52.75575    0.25179    73.00000

 Normal termination of Gaussian 16 at Sat Dec 12 18:06:33 2020.
