 Gaussian 16, Revision A.03,

 -----------------------------------------------------------
 # opt freq B3LYP/6-31G(d) empiricaldispersion=gd3bj scf=xqc
 -----------------------------------------------------------

 -------------------------------
 CID_105920056_JID_8824_neutraal
 -------------------------------
 Symbolic Z-matrix:
 Charge =  0 Multiplicity = 1

 SCF Done:  E(RB3LYP) =  -1217.60501375     A.U. after   15 cycles
 SCF Done:  E(RB3LYP) =  -1217.61131908     A.U. after   13 cycles
 SCF Done:  E(RB3LYP) =  -1217.61085304     A.U. after   13 cycles
 SCF Done:  E(RB3LYP) =  -1217.61240905     A.U. after   12 cycles
 SCF Done:  E(RB3LYP) =  -1217.61313905     A.U. after   13 cycles
 SCF Done:  E(RB3LYP) =  -1217.61355828     A.U. after   12 cycles
 SCF Done:  E(RB3LYP) =  -1217.61392548     A.U. after   12 cycles
 SCF Done:  E(RB3LYP) =  -1217.61450983     A.U. after   13 cycles
 SCF Done:  E(RB3LYP) =  -1217.61546377     A.U. after   13 cycles
 SCF Done:  E(RB3LYP) =  -1217.61663753     A.U. after   13 cycles
 SCF Done:  E(RB3LYP) =  -1217.62277312     A.U. after   10 cycles
 SCF Done:  E(RB3LYP) =  -1217.62277642     A.U. after   10 cycles
 SCF Done:  E(RB3LYP) =  -1217.62277821     A.U. after    9 cycles
 SCF Done:  E(RB3LYP) =  -1217.62277862     A.U. after    8 cycles
 SCF Done:  E(RB3LYP) =  -1217.62277865     A.U. after    7 cycles
 Optimization completed.
    -- Stationary point found.
 Normal termination of Gaussian 16 at Fri Dec 11 22:22:21 2020.

 --------------------------------------------------------------------
 #N Geom=AllCheck Guess=TCheck SCRF=Check GenChk RB3LYP/6-31G(d) Freq
 --------------------------------------------------------------------

 Structure from the checkpoint file:  "JID_8824.chk"
 -------------------------------
 CID_105920056_JID_8824_neutraal
 -------------------------------
 Charge =  0 Multiplicity = 1

 SCF Done:  E(RB3LYP) =  -1217.62277865     A.U. after    1 cycles

  Exact polarizability: 178.770  -9.938 147.701 -10.410  -5.363 133.286
 Approx polarizability: 215.640 -17.560 260.318 -22.106 -27.525 227.502

                      1                      2                      3
                      A                      A                      A
 Frequencies --      3.1142                23.5650                27.1735
 Red. masses --     10.1221                 5.4062                 6.2474
 Frc consts  --      0.0001                 0.0018                 0.0027
 IR Inten    --      0.9593                 0.3551                 0.4608

                      4                      5                      6
                      A                      A                      A
 Frequencies --     36.0348                48.9990                56.0065
 Red. masses --      3.8037                 5.8628                 5.3495
 Frc consts  --      0.0029                 0.0083                 0.0099
 IR Inten    --      0.9717                 0.5933                 0.2660

                      7                      8                      9
                      A                      A                      A
 Frequencies --     63.5078                85.9516                96.9467
 Red. masses --      4.4652                 5.0004                 4.4316
 Frc consts  --      0.0106                 0.0218                 0.0245
 IR Inten    --      2.3062                 1.6467                 1.5437

                     10                     11                     12
                      A                      A                      A
 Frequencies --    134.8703               165.7825               215.7163
 Red. masses --      4.1423                 4.0269                 2.4029
 Frc consts  --      0.0444                 0.0652                 0.0659
 IR Inten    --      2.6252                 1.8946                 1.7529

                     13                     14                     15
                      A                      A                      A
 Frequencies --    224.3638               245.1033               271.1724
 Red. masses --      1.9928                 2.5283                 3.9080
 Frc consts  --      0.0591                 0.0895                 0.1693
 IR Inten    --      2.4200                 2.8022                 2.7817

                     16                     17                     18
                      A                      A                      A
 Frequencies --    304.0763               306.9862               343.1005
 Red. masses --      1.9646                 2.8727                 2.5102
 Frc consts  --      0.1070                 0.1595                 0.1741
 IR Inten    --      2.9682                 0.3115                 1.6378

                     19                     20                     21
                      A                      A                      A
 Frequencies --    386.3660               408.2734               434.4365
 Red. masses --      4.5593                 3.1304                 3.4696
 Frc consts  --      0.4010                 0.3074                 0.3858
 IR Inten    --      0.4960                 1.9565                20.2872

                     22                     23                     24
                      A                      A                      A
 Frequencies --    486.0937               522.1410               524.1529
 Red. masses --      2.0914                 3.2972                 2.3559
 Frc consts  --      0.2912                 0.5296                 0.3813
 IR Inten    --      8.1051                18.4244                15.8519

                     25                     26                     27
                      A                      A                      A
 Frequencies --    558.0034               571.5406               577.7609
 Red. masses --      2.8197                 4.8388                 2.4612
 Frc consts  --      0.5173                 0.9313                 0.4840
 IR Inten    --     18.6335                13.7084                21.4685

                     28                     29                     30
                      A                      A                      A
 Frequencies --    628.2221               636.5104               641.8839
 Red. masses --      3.6226                 5.4365                 2.3024
 Frc consts  --      0.8424                 1.2977                 0.5589
 IR Inten    --      7.8835                33.4978                39.2417

                     31                     32                     33
                      A                      A                      A
 Frequencies --    656.4774               683.4677               690.9194
 Red. masses --      2.7547                 1.5846                 1.8613
 Frc consts  --      0.6995                 0.4361                 0.5235
 IR Inten    --     44.8761                25.8913               114.2708

                     34                     35                     36
                      A                      A                      A
 Frequencies --    729.4881               764.5972               781.3539
 Red. masses --      3.2839                 2.9471                 2.2254
 Frc consts  --      1.0296                 1.0151                 0.8005
 IR Inten    --     12.7882                37.9693                45.7093

                     37                     38                     39
                      A                      A                      A
 Frequencies --    791.7087               806.5342               821.3017
 Red. masses --      6.0872                 1.4496                 2.8932
 Frc consts  --      2.2480                 0.5556                 1.1498
 IR Inten    --     31.9868                 7.6100                10.2597

                     40                     41                     42
                      A                      A                      A
 Frequencies --    862.2692               864.5776               905.6699
 Red. masses --      2.4508                 1.3934                 2.4484
 Frc consts  --      1.0736                 0.6137                 1.1832
 IR Inten    --      9.9886                 8.6491                 0.6490

                     43                     44                     45
                      A                      A                      A
 Frequencies --    966.7670               978.3454              1007.0537
 Red. masses --      2.1678                 2.0233                 1.9949
 Frc consts  --      1.1938                 1.1410                 1.1920
 IR Inten    --      3.2187                10.2293                 2.5663

                     46                     47                     48
                      A                      A                      A
 Frequencies --   1068.6068              1073.8494              1098.5652
 Red. masses --      1.6415                 1.9984                 2.6721
 Frc consts  --      1.1044                 1.3578                 1.9000
 IR Inten    --     19.8742                 4.6412                26.2035

                     49                     50                     51
                      A                      A                      A
 Frequencies --   1102.9058              1132.4088              1157.1303
 Red. masses --      1.6091                 3.1705                 3.2925
 Frc consts  --      1.1532                 2.3954                 2.5974
 IR Inten    --      2.1424                91.6969                42.5357

                     52                     53                     54
                      A                      A                      A
 Frequencies --   1173.5225              1191.9677              1198.7973
 Red. masses --      2.7976                 2.9610                 2.8088
 Frc consts  --      2.2700                 2.4787                 2.3783
 IR Inten    --     54.9689               174.8691                 6.5016

                     55                     56                     57
                      A                      A                      A
 Frequencies --   1222.1680              1230.7774              1273.5201
 Red. masses --      1.6767                 1.7041                 1.3888
 Frc consts  --      1.4756                 1.5210                 1.3271
 IR Inten    --      9.6725                25.5078                72.6357

                     58                     59                     60
                      A                      A                      A
 Frequencies --   1283.7703              1291.1473              1327.9320
 Red. masses --      1.4121                 1.2836                 1.3960
 Frc consts  --      1.3711                 1.2608                 1.4504
 IR Inten    --      0.9947                 3.9737                36.6293

                     61                     62                     63
                      A                      A                      A
 Frequencies --   1342.7813              1343.9077              1363.8936
 Red. masses --      1.2830                 1.4558                 1.6300
 Frc consts  --      1.3630                 1.5492                 1.7864
 IR Inten    --     10.7589                 3.8494                82.4947

                     64                     65                     66
                      A                      A                      A
 Frequencies --   1377.7302              1408.0919              1412.1077
 Red. masses --      1.5456                 1.4460                 1.3986
 Frc consts  --      1.7285                 1.6892                 1.6432
 IR Inten    --      4.8708                19.9066                 7.4646

                     67                     68                     69
                      A                      A                      A
 Frequencies --   1439.3093              1444.4049              1458.9984
 Red. masses --      1.2238                 1.9820                 1.9131
 Frc consts  --      1.4937                 2.4363                 2.3994
 IR Inten    --      2.8427               118.6041                74.5220

                     70                     71                     72
                      A                      A                      A
 Frequencies --   1472.8998              1481.6263              1492.5069
 Red. masses --      1.3329                 1.3546                 1.1048
 Frc consts  --      1.7037                 1.7521                 1.4500
 IR Inten    --      9.0782                 3.0027                20.4443

                     73                     74                     75
                      A                      A                      A
 Frequencies --   1510.1793              1510.4363              1524.7388
 Red. masses --      1.0897                 1.0700                 1.2215
 Frc consts  --      1.4643                 1.4382                 1.6731
 IR Inten    --      7.6222                 3.0152                65.8385

                     76                     77                     78
                      A                      A                      A
 Frequencies --   1526.8611              1532.7862              1544.3680
 Red. masses --      1.0409                 1.1606                 4.7706
 Frc consts  --      1.4298                 1.6066                 6.7039
 IR Inten    --      8.7410                 1.3810                11.5819

                     79                     80                     81
                      A                      A                      A
 Frequencies --   1561.7865              1598.2578              1792.5527
 Red. masses --      1.1122                 6.3921                 5.8928
 Frc consts  --      1.5984                 9.6203                11.1562
 IR Inten    --     18.0486                 9.5716               333.4772

                     82                     83                     84
                      A                      A                      A
 Frequencies --   1836.8788              3043.0787              3055.0329
 Red. masses --      9.1778                 1.0621                 1.0348
 Frc consts  --     18.2453                 5.7950                 5.6902
 IR Inten    --    255.9603                23.4208                26.5366

                     85                     86                     87
                      A                      A                      A
 Frequencies --   3061.9302              3063.8980              3070.3030
 Red. masses --      1.0602                 1.0642                 1.0614
 Frc consts  --      5.8563                 5.8862                 5.8949
 IR Inten    --     20.8951                10.2040                19.9230

                     88                     89                     90
                      A                      A                      A
 Frequencies --   3081.8328              3097.0362              3098.5621
 Red. masses --      1.1010                 1.0932                 1.0777
 Frc consts  --      6.1608                 6.1777                 6.0962
 IR Inten    --      7.8164                 8.5228                10.3238

                     91                     92                     93
                      A                      A                      A
 Frequencies --   3104.8876              3110.6145              3125.5262
 Red. masses --      1.1012                 1.1004                 1.1028
 Frc consts  --      6.2547                 6.2732                 6.3473
 IR Inten    --     16.6071                19.4316                40.0087

                     94                     95                     96
                      A                      A                      A
 Frequencies --   3130.9912              3162.2289              3224.0310
 Red. masses --      1.1037                 1.0984                 1.0934
 Frc consts  --      6.3750                 6.4711                 6.6964
 IR Inten    --     28.6965                 5.0596                13.3771

                     97                     98                     99
                      A                      A                      A
 Frequencies --   3603.7296              3611.1953              3684.2553
 Red. masses --      1.0756                 1.0764                 1.0640
 Frc consts  --      8.2303                 8.2705                 8.5090
 IR Inten    --     27.5953                27.4850                47.3709

 - Thermochemistry -
 -------------------
 Temperature   298.150 Kelvin.  Pressure   1.00000 Atm.
 Atom     1 has atomic number  6 and mass  12.00000

 Molecular mass:   271.09906 amu.
 Principal axes and moments of inertia in atomic units:
                           1         2         3
     Eigenvalues --  2124.24735********************
           X            0.99991  -0.00655  -0.01134
           Y            0.00756   0.99572   0.09213
           Z            0.01069  -0.09221   0.99568
 This molecule is an asymmetric top.
 Rotational symmetry number  1.
 Warning -- assumption of classical behavior for rotation
           may cause significant error
 Rotational temperatures (Kelvin)      0.04077     0.00784     0.00759
 Rotational constants (GHZ):           0.84959     0.16340     0.15823
 Zero-point vibrational energy     756468.7 (Joules/Mol)
                                  180.80036 (Kcal/Mol)
 Warning -- explicit consideration of  27 degrees of freedom as
           vibrations may cause significant error
 Vibrational temperatures:      4.48    33.90    39.10    51.85    70.50
          (Kelvin)             80.58    91.37   123.67   139.48   194.05
                              238.52   310.37   322.81   352.65   390.16
                              437.50   441.68   493.65   555.89   587.41
                              625.06   699.38   751.24   754.14   802.84
                              822.32   831.27   903.87   915.80   923.53
                              944.52   983.36   994.08  1049.57  1100.08
                             1124.19  1139.09  1160.42  1181.67  1240.61
                             1243.93  1303.06  1390.96  1407.62  1448.93
                             1537.49  1545.03  1580.59  1586.84  1629.28
                             1664.85  1688.44  1714.98  1724.80  1758.43
                             1770.81  1832.31  1847.06  1857.67  1910.60
                             1931.96  1933.58  1962.34  1982.25  2025.93
                             2031.71  2070.85  2078.18  2099.17  2119.17
                             2131.73  2147.38  2172.81  2173.18  2193.76
                             2196.81  2205.34  2222.00  2247.06  2299.54
                             2579.08  2642.86  4378.31  4395.51  4405.43
                             4408.27  4417.48  4434.07  4455.94  4458.14
                             4467.24  4475.48  4496.94  4504.80  4549.74
                             4638.66  5184.96  5195.70  5300.82

 Zero-point correction=                           0.288124 (Hartree/Particle)
 Thermal correction to Energy=                    0.307066
 Thermal correction to Enthalpy=                  0.308011
 Thermal correction to Gibbs Free Energy=         0.234889
 Sum of electronic and zero-point Energies=          -1217.334655
 Sum of electronic and thermal Energies=             -1217.315712
 Sum of electronic and thermal Enthalpies=           -1217.314768
 Sum of electronic and thermal Free Energies=        -1217.387889

                     E (Thermal)             CV                S
                      KCal/Mol        Cal/Mol-Kelvin    Cal/Mol-Kelvin
 Total                  192.687             68.314            153.897
 Electronic               0.000              0.000              0.000
 Translational            0.889              2.981             42.691
 Rotational               0.889              2.981             33.947
 Vibrational            190.910             62.352             77.258
 Vibration     1          0.592              1.987             10.329
 Vibration     2          0.593              1.985              6.309
 Vibration     3          0.593              1.984              6.026
 Vibration     4          0.594              1.982              5.466
 Vibration     5          0.595              1.978              4.857
 Vibration     6          0.596              1.975              4.593
 Vibration     7          0.597              1.972              4.345
 Vibration     8          0.601              1.959              3.750
 Vibration     9          0.603              1.951              3.515
 Vibration    10          0.613              1.919              2.875
 Vibration    11          0.624              1.885              2.483
 Vibration    12          0.645              1.817              1.995
 Vibration    13          0.649              1.804              1.924
 Vibration    14          0.660              1.771              1.766
 Vibration    15          0.675              1.726              1.589
 Vibration    16          0.695              1.666              1.394
 Vibration    17          0.697              1.660              1.379
 Vibration    18          0.722              1.589              1.198
 Vibration    19          0.755              1.499              1.014
 Vibration    20          0.773              1.452              0.933
 Vibration    21          0.795              1.395              0.844
 Vibration    22          0.842              1.281              0.694
 Vibration    23          0.877              1.201              0.605
 Vibration    24          0.879              1.197              0.600
 Vibration    25          0.914              1.122              0.528
 Vibration    26          0.928              1.093              0.501
 Vibration    27          0.934              1.079              0.490

                           ! Non-Optimized Parameters !
 Normal termination of Gaussian 16 at Fri Dec 11 22:36:11 2020.

 ----------------------------------------------------------------------
 # B3LYP/6-311++G(d,p) empiricaldispersion=gd3bj scf=xqc pop=npa geom=c
 heck
 ----------------------------------------------------------------------

 ---------------------------------------
 CID_105920056_JID_8824_Energie_neutraal
 ---------------------------------------
 Structure from the checkpoint file:  "JID_8824.chk"
 Charge =  0 Multiplicity = 1

 SCF Done:  E(RB3LYP) =  -1217.89963996     A.U. after   15 cycles
 Normal termination of Gaussian 16 at Fri Dec 11 22:42:42 2020.

 ----------------------------------------------------------------------
 # B3LYP/6-311++G(d,p) empiricaldispersion=gd3bj scf=xqc pop=npa geom=c
 heck
 ----------------------------------------------------------------------

 -------------------------------------
 CID_105920056_JID_8824_Energie_kation
 -------------------------------------
 Structure from the checkpoint file:  "JID_8824.chk"
 Charge =  1 Multiplicity = 2

 SCF Done:  E(UB3LYP) =  -1217.59381697     A.U. after   28 cycles
 Normal termination of Gaussian 16 at Fri Dec 11 23:00:01 2020.
 Gaussian 16:  ES64L-G16RevA.03 25-Dec-2016

 ----------------------------------------------------------------------
 # B3LYP/6-311++G(d,p) empiricaldispersion=gd3bj scf=xqc pop=npa geom=c
 heck
 ----------------------------------------------------------------------

 ------------------------------------
 CID_105920056_JID_8824_Energie_anion
 ------------------------------------
 Structure from the checkpoint file:  "JID_8824.chk"
 Charge = -1 Multiplicity = 2

                         Standard orientation:
 ---------------------------------------------------------------------
 Center     Atomic      Atomic             Coordinates (Angstroms)
 Number     Number       Type             X           Y           Z
 ---------------------------------------------------------------------
      1          6           0        5.831168   -0.290919   -0.920771
      2          6           0        4.573661   -1.153456   -1.111261
      3          6           0        3.445377   -0.777875   -0.198584
      4          6           0        2.861350   -1.521263    0.788343
      5          7           0        1.830876   -0.928000    1.484677
      6          6           0        1.610673    0.278785    1.053056
      7         16           0        2.657441    0.783476   -0.266466
      8          6           0        0.552365    1.183628    1.624720
      9          7           0       -0.276655    1.865836    0.637115
     10          6           0       -0.762153    1.313322   -0.545379
     11          8           0       -0.940747    2.021163   -1.533013
     12          7           0       -1.028762   -0.040091   -0.559657
     13          6           0       -1.560252   -0.844998    0.545385
     14          6           0       -2.737761   -0.197415    1.291788
     15          6           0       -3.854508    0.326659    0.384487
     16          6           0       -4.559426   -0.743792   -0.415261
     17          8           0       -4.239144   -1.911213   -0.502260
     18          8           0       -5.635477   -0.242493   -1.068978
     19          1           0        5.623370    0.762179   -1.139283
     20          1           0        6.632615   -0.623113   -1.589174
     21          1           0        6.192118   -0.354183    0.110971
     22          1           0        4.244468   -1.093296   -2.156905
     23          1           0        4.814479   -2.206546   -0.922636
     24          1           0        3.152052   -2.535788    1.038565
     25          1           0       -0.047035    0.576559    2.309729
     26          1           0        1.017014    1.968250    2.231708
     27          1           0       -0.054099    2.839572    0.478021
     28          1           0       -1.381719   -0.293334   -1.473521
     29          1           0       -1.894455   -1.780765    0.097511
     30          1           0       -0.760737   -1.099490    1.246820
     31          1           0       -3.142030   -0.938206    1.991595
     32          1           0       -2.375605    0.646579    1.889173
     33          1           0       -4.613477    0.857918    0.970384
     34          1           0       -3.466772    1.065227   -0.328837
     35          1           0       -6.017465   -0.987117   -1.570738
 ---------------------------------------------------------------------

 SCF Done:  E(UB3LYP) =  -1217.89546975     A.U. after   33 cycles
 SCF Done:  E(UB3LYP) =  -1217.89546975     a.u. after    1 cycles

 The electronic state is 2-A.
 Alpha  occ. eigenvalues --  -88.75942 -19.08428 -19.03301 -18.98094 -14.23162
 Alpha  occ. eigenvalues --  -14.23088 -14.19500 -10.22382 -10.19343 -10.11699
 Alpha  occ. eigenvalues --  -10.11019 -10.10703 -10.09946 -10.09108 -10.08829
 Alpha  occ. eigenvalues --  -10.08675 -10.08520 -10.07799  -7.84601  -5.80875
 Alpha  occ. eigenvalues --   -5.80534  -5.80209  -1.02636  -0.94742  -0.93707
 Alpha  occ. eigenvalues --   -0.85065  -0.82964  -0.80719  -0.71423  -0.71063
 Alpha  occ. eigenvalues --   -0.66087  -0.64917  -0.63184  -0.59187  -0.55791
 Alpha  occ. eigenvalues --   -0.54051  -0.51157  -0.48657  -0.45345  -0.44717
 Alpha  occ. eigenvalues --   -0.42262  -0.40974  -0.40281  -0.40027  -0.39002
 Alpha  occ. eigenvalues --   -0.38148  -0.37600  -0.36142  -0.35901  -0.34760
 Alpha  occ. eigenvalues --   -0.33411  -0.32337  -0.31601  -0.31240  -0.30325
 Alpha  occ. eigenvalues --   -0.29956  -0.29765  -0.27705  -0.27645  -0.27376
 Alpha  occ. eigenvalues --   -0.26765  -0.26263  -0.25905  -0.24295  -0.23919
 Alpha  occ. eigenvalues --   -0.19923  -0.17820  -0.16848  -0.16769  -0.16177
 Alpha  occ. eigenvalues --   -0.15135  -0.13010   0.03873
 Alpha virt. eigenvalues --    0.05087   0.05928   0.07054   0.07772   0.08208
 Alpha virt. eigenvalues --    0.08400   0.08963   0.09377   0.09780   0.10232
 Alpha virt. eigenvalues --    0.10896   0.11101   0.11472   0.12468   0.12557

  Beta  occ. eigenvalues --  -88.75920 -19.08383 -19.03291 -18.98089 -14.23122
  Beta  occ. eigenvalues --  -14.23083 -14.19447 -10.22382 -10.19344 -10.11704
  Beta  occ. eigenvalues --  -10.10755 -10.10703 -10.09927 -10.09117 -10.08669
  Beta  occ. eigenvalues --  -10.08648 -10.08522 -10.07774  -7.84581  -5.80870
  Beta  occ. eigenvalues --   -5.80529  -5.80125  -1.02580  -0.94731  -0.93661
  Beta  occ. eigenvalues --   -0.84848  -0.82922  -0.80668  -0.71236  -0.71036
  Beta  occ. eigenvalues --   -0.65901  -0.64763  -0.63136  -0.59093  -0.55745
  Beta  occ. eigenvalues --   -0.53983  -0.51089  -0.48580  -0.45129  -0.44524
  Beta  occ. eigenvalues --   -0.42236  -0.40953  -0.40171  -0.39980  -0.38919
  Beta  occ. eigenvalues --   -0.38089  -0.37520  -0.36073  -0.35819  -0.34704
  Beta  occ. eigenvalues --   -0.33364  -0.32203  -0.31565  -0.31175  -0.30170
  Beta  occ. eigenvalues --   -0.29858  -0.29585  -0.27623  -0.27584  -0.27324
  Beta  occ. eigenvalues --   -0.26538  -0.26120  -0.25876  -0.24265  -0.23795
  Beta  occ. eigenvalues --   -0.19891  -0.17756  -0.16693  -0.16329  -0.16100
  Beta  occ. eigenvalues --   -0.15062  -0.12143
  Beta virt. eigenvalues --    0.06026   0.06215   0.07081   0.07548   0.08039
  Beta virt. eigenvalues --    0.08358   0.08847   0.09286   0.09551   0.09849
  Beta virt. eigenvalues --    0.10345   0.10930   0.11184   0.11605   0.12470

 Mulliken charges and spin densities:
               1          2
     1  C   -0.271191  -0.256223
     2  C   -0.736472   0.339769
     3  C    0.605577  -0.305173
     4  C   -0.242853  -0.018460
     5  N    0.009488   0.035089
     6  C    0.219534   0.079231
     7  S   -0.199442   0.171383
     8  C   -0.008314  -0.585293
     9  N   -0.281829   0.049969
    10  C    0.004319  -0.126595
    11  O   -0.340113   0.017697
    12  N   -0.077382  -0.013582
    13  C   -0.278402  -0.136850
    14  C   -0.272958  -0.054529
    15  C    0.003069  -0.179587
    16  C    0.217410  -0.376460
    17  O   -0.273940  -0.003751
    18  O   -0.167773   0.031021
    19  H    0.161185  -0.018858
    20  H   -0.097249   0.222080
    21  H    0.134321   0.003987
    22  H    0.017902   0.139295
    23  H    0.091014   0.045878
    24  H    0.139231  -0.002061
    25  H    0.196690  -0.014187
    26  H   -0.465094   0.686406
    27  H    0.112229   0.222764
    28  H    0.315710   0.032429
    29  H    0.215525  -0.017596
    30  H    0.204806  -0.014776
    31  H    0.060861   0.106030
    32  H    0.200941  -0.041267
    33  H   -0.128838   0.336665
    34  H    0.226955   0.061005
    35  H   -0.294915   0.584549
 Sum of Mulliken charges =  -1.00000   1.00000

 Dipole moment (field-independent basis, Debye):
    X=              3.0170    Y=             -2.0451    Z=              1.7449  Tot=              4.0410
 Quadrupole moment (field-independent basis, Debye-Ang):
   XX=           -208.9612   YY=           -149.6583   ZZ=           -146.2656
   XY=             -6.1682   XZ=            -11.1282   YZ=             -0.3593

 Summary of Natural Population Analysis:

                                       Natural Population
                Natural  -----------------------------------------------
    Atom  No    Charge         Core      Valence    Rydberg      Total
 -----------------------------------------------------------------------
      C    1   -0.28122      0.99966     2.27574    0.00581     3.28122
      C    2   -0.20616      0.99959     2.19714    0.00943     3.20616
      C    3   -0.08026      0.99949     2.06943    0.01134     3.08026
      C    4   -0.03143      0.99945     2.01718    0.01479     3.03143
      N    5   -0.24594      0.99964     2.73619    0.01010     3.74594
      C    6    0.06898      0.99961     1.91278    0.01863     2.93102
      S    7    0.18727      4.99938     2.79559    0.01776     7.81273
      C    8   -0.11432      0.99954     2.10081    0.01397     3.11432
      N    9   -0.33386      0.99968     2.82324    0.01094     3.83386
      C   10    0.40449      0.99969     1.57113    0.02469     2.59551
      O   11   -0.34034      0.99988     3.33543    0.00504     4.34034
      N   12   -0.33053      0.99967     2.82199    0.00886     3.83053
      C   13   -0.10044      0.99961     2.08994    0.01089     3.10044
      C   14   -0.19894      0.99963     2.19100    0.00831     3.19894
      C   15   -0.24804      0.99957     2.23962    0.00884     3.24804
      C   16    0.40789      0.99972     1.56705    0.02534     2.59211
      O   17   -0.31190      0.99987     3.30583    0.00621     4.31190
      O   18   -0.34324      0.99988     3.33708    0.00628     4.34324
      H   19    0.09887      0.00000     0.40034    0.00079     0.40113
      H   20    0.09461      0.00000     0.40398    0.00141     0.40539
      H   21    0.09745      0.00000     0.40179    0.00077     0.40255
      H   22    0.10315      0.00000     0.39536    0.00150     0.39685
      H   23    0.10093      0.00000     0.39805    0.00102     0.39907
      H   24    0.09321      0.00000     0.40588    0.00091     0.40679
      H   25    0.10192      0.00000     0.39623    0.00185     0.39808
      H   26    0.11363      0.00000     0.38284    0.00353     0.38637
      H   27    0.19727      0.00000     0.30019    0.00254     0.30273
      H   28    0.19412      0.00000     0.30435    0.00152     0.30588
      H   29    0.10914      0.00000     0.38991    0.00095     0.39086
      H   30    0.10617      0.00000     0.39229    0.00155     0.39383
      H   31    0.10190      0.00000     0.39719    0.00092     0.39810
      H   32    0.10405      0.00000     0.39489    0.00106     0.39595
      H   33    0.11561      0.00000     0.38351    0.00089     0.38439
      H   34    0.12345      0.00000     0.37539    0.00116     0.37655
      H   35    0.24252      0.00000     0.24533    0.01215     0.25748
 =======================================================================
   * Total *   -0.00000     21.99356    49.75468    0.25176    72.00000

 Normal termination of Gaussian 16 at Fri Dec 11 23:20:10 2020.
