 Gaussian 16, Revision A.03,

 -----------------------------------------------------------
 # opt freq B3LYP/6-31G(d) empiricaldispersion=gd3bj scf=xqc
 -----------------------------------------------------------

 -------------------------------
 CID_116102425_JID_1135_neutraal
 -------------------------------
 Symbolic Z-matrix:
 Charge =  0 Multiplicity = 1

 SCF Done:  E(RB3LYP) =  -807.349315500     A.U. after   13 cycles
 SCF Done:  E(RB3LYP) =  -807.357109742     A.U. after   11 cycles
 SCF Done:  E(RB3LYP) =  -807.358601476     A.U. after   12 cycles
 SCF Done:  E(RB3LYP) =  -807.358760800     A.U. after   13 cycles
 SCF Done:  E(RB3LYP) =  -807.359850728     A.U. after   11 cycles
 SCF Done:  E(RB3LYP) =  -807.360044493     A.U. after   11 cycles
 SCF Done:  E(RB3LYP) =  -807.360197118     A.U. after   11 cycles
 SCF Done:  E(RB3LYP) =  -807.360185994     A.U. after   10 cycles
 SCF Done:  E(RB3LYP) =  -807.360286949     A.U. after   10 cycles
 SCF Done:  E(RB3LYP) =  -807.360295429     A.U. after    9 cycles
 SCF Done:  E(RB3LYP) =  -807.360296314     A.U. after    7 cycles
 SCF Done:  E(RB3LYP) =  -807.360296397     A.U. after    7 cycles
 SCF Done:  E(RB3LYP) =  -807.360296496     A.U. after    7 cycles
 SCF Done:  E(RB3LYP) =  -807.360296504     A.U. after    6 cycles
 Optimization completed.
    -- Stationary point found.
 Normal termination of Gaussian 16 at Tue Dec  8 19:17:30 2020.

 --------------------------------------------------------------------
 #N Geom=AllCheck Guess=TCheck SCRF=Check GenChk RB3LYP/6-31G(d) Freq
 --------------------------------------------------------------------

 Structure from the checkpoint file:  "JID_1135.chk"
 -------------------------------
 CID_116102425_JID_1135_neutraal
 -------------------------------
 Charge =  0 Multiplicity = 1

 SCF Done:  E(RB3LYP) =  -807.360296504     A.U. after    1 cycles

  Exact polarizability: 134.244  -2.561 117.359  -0.594  -0.287  98.475
 Approx polarizability: 169.904  -5.288 166.815  -2.807   0.658 149.214

                      1                      2                      3
                      A                      A                      A
 Frequencies --     28.0683                41.2341                78.3461
 Red. masses --      3.5045                 3.1015                 2.6246
 Frc consts  --      0.0016                 0.0031                 0.0095
 IR Inten    --      0.8694                 0.0926                 0.0880

                      4                      5                      6
                      A                      A                      A
 Frequencies --    116.4309               124.0567               154.5358
 Red. masses --      2.2776                 2.5520                 1.9853
 Frc consts  --      0.0182                 0.0231                 0.0279
 IR Inten    --      0.7497                 1.3403                 0.3384

                      7                      8                      9
                      A                      A                      A
 Frequencies --    167.0581               208.5247               224.7764
 Red. masses --      2.4593                 2.3963                 1.4797
 Frc consts  --      0.0404                 0.0614                 0.0440
 IR Inten    --      3.1722                 6.2495                18.6972

                     10                     11                     12
                      A                      A                      A
 Frequencies --    254.5413               264.0787               296.7553
 Red. masses --      1.3512                 1.8515                 2.5979
 Frc consts  --      0.0516                 0.0761                 0.1348
 IR Inten    --      0.1854                29.3188                 0.8944

                     13                     14                     15
                      A                      A                      A
 Frequencies --    339.4286               364.1092               375.3465
 Red. masses --      2.7934                 2.8263                 2.3328
 Frc consts  --      0.1896                 0.2208                 0.1936
 IR Inten    --      1.1096                 0.9874                 7.5876

                     16                     17                     18
                      A                      A                      A
 Frequencies --    411.0724               486.7151               646.8588
 Red. masses --      2.4095                 3.2398                 3.3563
 Frc consts  --      0.2399                 0.4522                 0.8274
 IR Inten    --      0.6600                 3.6932                 6.4938

                     19                     20                     21
                      A                      A                      A
 Frequencies --    662.1524               717.8037               750.1345
 Red. masses --      2.6345                 2.0929                 1.5015
 Frc consts  --      0.6806                 0.6353                 0.4978
 IR Inten    --      0.9859                 6.7392                 0.9573

                     22                     23                     24
                      A                      A                      A
 Frequencies --    762.2342               789.3037               805.3087
 Red. masses --      1.9492                 1.2442                 1.2540
 Frc consts  --      0.6672                 0.4567                 0.4791
 IR Inten    --      9.2481                 5.8563                 4.0886

                     25                     26                     27
                      A                      A                      A
 Frequencies --    858.6596               874.6552               914.7125
 Red. masses --      1.4145                 1.7143                 2.0130
 Frc consts  --      0.6145                 0.7727                 0.9924
 IR Inten    --     36.3492                48.4861                11.4556

                     28                     29                     30
                      A                      A                      A
 Frequencies --    955.9436               962.9384               982.9684
 Red. masses --      2.3135                 1.8077                 1.7485
 Frc consts  --      1.2456                 0.9876                 0.9954
 IR Inten    --      2.4030                 6.2121                 2.7556

                     31                     32                     33
                      A                      A                      A
 Frequencies --    993.6869              1002.0651              1024.8050
 Red. masses --      1.9265                 2.3209                 3.6267
 Frc consts  --      1.1208                 1.3731                 2.2441
 IR Inten    --      4.3640                21.3313                 1.7077

                     34                     35                     36
                      A                      A                      A
 Frequencies --   1063.6461              1068.4766              1075.0293
 Red. masses --      1.5712                 1.4384                 1.7029
 Frc consts  --      1.0473                 0.9675                 1.1595
 IR Inten    --      2.3396                 1.3357                 4.2006

                     37                     38                     39
                      A                      A                      A
 Frequencies --   1085.1054              1094.4008              1143.2396
 Red. masses --      1.7241                 2.1651                 1.8460
 Frc consts  --      1.1961                 1.5278                 1.4215
 IR Inten    --      3.4324                 3.7613                11.8287

                     40                     41                     42
                      A                      A                      A
 Frequencies --   1183.3398              1219.7178              1228.5177
 Red. masses --      1.3018                 1.3211                 1.5553
 Frc consts  --      1.0740                 1.1580                 1.3830
 IR Inten    --      0.8467                 0.9757                 0.2671

                     43                     44                     45
                      A                      A                      A
 Frequencies --   1250.2331              1271.5494              1275.9665
 Red. masses --      1.6487                 1.2735                 1.2519
 Frc consts  --      1.5183                 1.2132                 1.2008
 IR Inten    --      2.0308                 0.8610                 4.4092

                     46                     47                     48
                      A                      A                      A
 Frequencies --   1292.3576              1294.6173              1304.6856
 Red. masses --      1.2893                 1.3321                 1.4573
 Frc consts  --      1.2687                 1.3154                 1.4616
 IR Inten    --      1.0294                 1.6115                 2.6858

                     49                     50                     51
                      A                      A                      A
 Frequencies --   1311.5485              1325.9059              1365.2246
 Red. masses --      1.5235                 1.3017                 1.3431
 Frc consts  --      1.5441                 1.3483                 1.4749
 IR Inten    --      2.3742                19.7458                 0.4204

                     52                     53                     54
                      A                      A                      A
 Frequencies --   1372.3834              1395.5777              1436.1323
 Red. masses --      1.3717                 1.3726                 1.2288
 Frc consts  --      1.5221                 1.5751                 1.4932
 IR Inten    --      5.9992                 1.3169                 3.0953

                     55                     56                     57
                      A                      A                      A
 Frequencies --   1451.5171              1504.5442              1506.2056
 Red. masses --      1.4384                 1.0819                 1.0849
 Frc consts  --      1.7856                 1.4429                 1.4501
 IR Inten    --     11.4471                 0.4482                 3.0020

                     58                     59                     60
                      A                      A                      A
 Frequencies --   1508.2354              1512.4848              1519.3321
 Red. masses --      1.0812                 1.0777                 1.0848
 Frc consts  --      1.4491                 1.4525                 1.4754
 IR Inten    --      1.7813                 1.7304                 8.9520

                     61                     62                     63
                      A                      A                      A
 Frequencies --   1525.0933              1533.6173              1535.9471
 Red. masses --      1.0535                 1.1007                 1.0548
 Frc consts  --      1.4438                 1.5253                 1.4662
 IR Inten    --      5.9444                 5.0521                 1.2169

                     64                     65                     66
                      A                      A                      A
 Frequencies --   1543.8478              1692.4880              2947.7983
 Red. masses --      1.1055                 1.0878                 1.0731
 Frc consts  --      1.5525                 1.8359                 5.4939
 IR Inten    --      0.1850                37.4625                90.3921

                     67                     68                     69
                      A                      A                      A
 Frequencies --   3033.2442              3048.1198              3055.4350
 Red. masses --      1.0603                 1.0378                 1.0599
 Frc consts  --      5.7474                 5.6810                 5.8298
 IR Inten    --     13.0808                26.0041                52.0419

                     70                     71                     72
                      A                      A                      A
 Frequencies --   3057.1242              3063.8452              3065.3878
 Red. masses --      1.0853                 1.0601                 1.0659
 Frc consts  --      5.9764                 5.8631                 5.9014
 IR Inten    --     10.2653                27.3675                22.6796

                     73                     74                     75
                      A                      A                      A
 Frequencies --   3068.1208              3077.1715              3078.1098
 Red. masses --      1.0775                 1.0711                 1.0746
 Frc consts  --      5.9759                 5.9754                 5.9987
 IR Inten    --     24.7701                21.1115                68.8752

                     76                     77                     78
                      A                      A                      A
 Frequencies --   3097.8126              3104.0360              3108.5347
 Red. masses --      1.1067                 1.1037                 1.1085
 Frc consts  --      6.2571                 6.2653                 6.3111
 IR Inten    --     31.3838                 8.2232                 7.0358

                     79                     80                     81
                      A                      A                      A
 Frequencies --   3113.2499              3129.4505              3135.4880
 Red. masses --      1.0994                 1.1077                 1.1037
 Frc consts  --      6.2781                 6.3917                 6.3929
 IR Inten    --     33.7898                70.1986                33.3338

                     82                     83                     84
                      A                      A                      A
 Frequencies --   3156.8064              3468.3362              3551.7619
 Red. masses --      1.0965                 1.0496                 1.0922
 Frc consts  --      6.4380                 7.4394                 8.1178
 IR Inten    --      6.9681                 1.4324                 0.2055

 - Thermochemistry -
 -------------------
 Temperature   298.150 Kelvin.  Pressure   1.00000 Atm.
 Atom     1 has atomic number  6 and mass  12.00000

 Molecular mass:   173.12382 amu.
 Principal axes and moments of inertia in atomic units:
                           1         2         3
     Eigenvalues --  1296.687413515.495504197.47469
           X            0.99962  -0.02715   0.00486
           Y            0.02714   0.99963   0.00135
           Z           -0.00489  -0.00122   0.99999
 This molecule is an asymmetric top.
 Rotational symmetry number  1.
 Warning -- assumption of classical behavior for rotation
           may cause significant error
 Rotational temperatures (Kelvin)      0.06680     0.02464     0.02063
 Rotational constants (GHZ):           1.39181     0.51337     0.42996
 Zero-point vibrational energy     717102.1 (Joules/Mol)
                                  171.39152 (Kcal/Mol)
 Warning -- explicit consideration of  17 degrees of freedom as
           vibrations may cause significant error
 Vibrational temperatures:     40.38    59.33   112.72   167.52   178.49
          (Kelvin)            222.34   240.36   300.02   323.40   366.23
                              379.95   426.96   488.36   523.87   540.04
                              591.44   700.27   930.69   952.69  1032.76
                             1079.28  1096.69  1135.63  1158.66  1235.42
                             1258.43  1316.07  1375.39  1385.45  1414.27
                             1429.69  1441.75  1474.47  1530.35  1537.30
                             1546.73  1561.22  1574.60  1644.87  1702.56
                             1754.90  1767.56  1798.81  1829.48  1835.83
                             1859.41  1862.67  1877.15  1887.03  1907.68
                             1964.25  1974.55  2007.93  2066.27  2088.41
                             2164.70  2167.09  2170.01  2176.13  2185.98
                             2194.27  2206.53  2209.89  2221.25  2435.11
                             4241.22  4364.16  4385.56  4396.09  4398.52
                             4408.19  4410.41  4414.34  4427.36  4428.71
                             4457.06  4466.02  4472.49  4479.27  4502.58
                             4511.27  4541.94  4990.16  5110.19

 Zero-point correction=                           0.273130 (Hartree/Particle)
 Thermal correction to Energy=                    0.286644
 Thermal correction to Enthalpy=                  0.287588
 Thermal correction to Gibbs Free Energy=         0.232143
 Sum of electronic and zero-point Energies=           -807.087167
 Sum of electronic and thermal Energies=              -807.073653
 Sum of electronic and thermal Enthalpies=            -807.072709
 Sum of electronic and thermal Free Energies=         -807.128154

                     E (Thermal)             CV                S
                      KCal/Mol        Cal/Mol-Kelvin    Cal/Mol-Kelvin
 Total                  179.872             49.811            116.694
 Electronic               0.000              0.000              0.000
 Translational            0.889              2.981             41.354
 Rotational               0.889              2.981             31.326
 Vibrational            178.094             43.850             44.014
 Vibration     1          0.593              1.984              5.961
 Vibration     2          0.594              1.981              5.199
 Vibration     3          0.600              1.964              3.932
 Vibration     4          0.608              1.936              3.159
 Vibration     5          0.610              1.929              3.036
 Vibration     6          0.620              1.898              2.616
 Vibration     7          0.624              1.883              2.468
 Vibration     8          0.642              1.828              2.057
 Vibration     9          0.649              1.803              1.920
 Vibration    10          0.665              1.755              1.699
 Vibration    11          0.671              1.739              1.635
 Vibration    12          0.690              1.680              1.435
 Vibration    13          0.719              1.597              1.215
 Vibration    14          0.738              1.546              1.105
 Vibration    15          0.746              1.523              1.058
 Vibration    16          0.775              1.446              0.923
 Vibration    17          0.843              1.280              0.692

 Optimization completed.
    -- Stationary point found.
 Normal termination of Gaussian 16 at Tue Dec  8 19:24:54 2020.

 ----------------------------------------------------------------------
 # B3LYP/6-311++G(d,p) empiricaldispersion=gd3bj scf=xqc pop=npa geom=c
 heck
 ----------------------------------------------------------------------

 ---------------------------------------
 CID_116102425_JID_1135_Energie_neutraal
 ---------------------------------------
 Structure from the checkpoint file:  "JID_1135.chk"
 Charge =  0 Multiplicity = 1

 SCF Done:  E(RB3LYP) =  -807.508615771     A.U. after   13 cycles
 Normal termination of Gaussian 16 at Tue Dec  8 19:28:16 2020.

 ----------------------------------------------------------------------
 # B3LYP/6-311++G(d,p) empiricaldispersion=gd3bj scf=xqc pop=npa geom=c
 heck
 ----------------------------------------------------------------------

 -------------------------------------
 CID_116102425_JID_1135_Energie_kation
 -------------------------------------
 Structure from the checkpoint file:  "JID_1135.chk"
 Charge =  1 Multiplicity = 2

 SCF Done:  E(UB3LYP) =  -807.218700707     A.U. after   18 cycles
 Normal termination of Gaussian 16 at Tue Dec  8 19:34:55 2020.
 Gaussian 16:  ES64L-G16RevA.03 25-Dec-2016

 ----------------------------------------------------------------------
 # B3LYP/6-311++G(d,p) empiricaldispersion=gd3bj scf=xqc pop=npa geom=c
 heck
 ----------------------------------------------------------------------

 ------------------------------------
 CID_116102425_JID_1135_Energie_anion
 ------------------------------------
 Structure from the checkpoint file:  "JID_1135.chk"
 Charge = -1 Multiplicity = 2

                         Standard orientation:
 ---------------------------------------------------------------------
 Center     Atomic      Atomic             Coordinates (Angstroms)
 Number     Number       Type             X           Y           Z
 ---------------------------------------------------------------------
      1          6           0        3.024208   -1.535837    0.860036
      2          6           0        3.125017   -0.719559   -0.425894
      3         16           0        2.589668    1.030306   -0.267722
      4          6           0        0.842537    0.853705    0.263117
      5          6           0       -0.055414    0.154250   -0.759077
      6          6           0       -1.499395   -0.088963   -0.298283
      7          6           0       -2.269712   -1.184218   -1.106083
      8          6           0       -2.757640   -1.806811    0.226764
      9          6           0       -1.674826   -0.986800    0.971528
     10          6           0       -2.352607    1.185688   -0.239103
     11          7           0       -1.871231    2.157785    0.748843
     12          1           0        3.583798   -1.059009    1.670792
     13          1           0        3.426994   -2.544392    0.704752
     14          1           0        1.984121   -1.643530    1.185824
     15          1           0        4.167339   -0.648284   -0.753933
     16          1           0        2.569323   -1.201250   -1.237407
     17          1           0        0.811118    0.333769    1.226815
     18          1           0        0.490105    1.870504    0.441646
     19          1           0       -0.057164    0.731136   -1.693073
     20          1           0        0.377509   -0.824802   -1.002736
     21          1           0       -3.034008   -0.831828   -1.807652
     22          1           0       -1.583791   -1.844576   -1.646204
     23          1           0       -2.704257   -2.895715    0.316251
     24          1           0       -3.772541   -1.491753    0.487485
     25          1           0       -0.774633   -1.578749    1.169464
     26          1           0       -1.968308   -0.497751    1.907515
     27          1           0       -2.313398    1.667041   -1.225002
     28          1           0       -3.405847    0.891126   -0.077636
     29          1           0       -2.465090    2.984889    0.731867
     30          1           0       -1.960338    1.765060    1.684846
 ---------------------------------------------------------------------

 SCF Done:  E(UB3LYP) =  -807.495298212     A.U. after   27 cycles

 The electronic state is 2-A.
 Alpha  occ. eigenvalues --  -88.73136 -14.18576 -10.09951 -10.08543 -10.08331
 Alpha  occ. eigenvalues --  -10.07819 -10.06789 -10.06424 -10.06366 -10.06283
 Alpha  occ. eigenvalues --  -10.06096  -7.81747  -5.78143  -5.77772  -5.77126
 Alpha  occ. eigenvalues --   -0.78424  -0.74176  -0.70967  -0.66250  -0.60948
 Alpha  occ. eigenvalues --   -0.57443  -0.55753  -0.53394  -0.49913  -0.46494
 Alpha  occ. eigenvalues --   -0.42392  -0.38984  -0.38284  -0.37041  -0.35601
 Alpha  occ. eigenvalues --   -0.35281  -0.33211  -0.32316  -0.30357  -0.29384
 Alpha  occ. eigenvalues --   -0.29024  -0.28060  -0.27354  -0.26508  -0.25032
 Alpha  occ. eigenvalues --   -0.23776  -0.23527  -0.21729  -0.20686  -0.19609
 Alpha  occ. eigenvalues --   -0.18663  -0.13637  -0.12097   0.04441
 Alpha virt. eigenvalues --    0.06195   0.07505   0.07809   0.08734   0.09146
 Alpha virt. eigenvalues --    0.09603   0.09970   0.10550   0.11235   0.11492
 Alpha virt. eigenvalues --    0.12599   0.12778   0.13486   0.13720   0.13803

  Beta  occ. eigenvalues --  -88.73135 -14.18530 -10.09938 -10.08514 -10.08325
  Beta  occ. eigenvalues --  -10.07822 -10.06756 -10.06414 -10.06356 -10.06260
  Beta  occ. eigenvalues --  -10.06061  -7.81746  -5.78142  -5.77768  -5.77124
  Beta  occ. eigenvalues --   -0.78362  -0.74135  -0.70947  -0.66224  -0.60906
  Beta  occ. eigenvalues --   -0.57379  -0.55691  -0.53332  -0.49848  -0.46458
  Beta  occ. eigenvalues --   -0.42329  -0.38933  -0.38242  -0.37009  -0.35569
  Beta  occ. eigenvalues --   -0.35239  -0.33135  -0.32274  -0.30321  -0.29346
  Beta  occ. eigenvalues --   -0.28991  -0.28032  -0.27324  -0.26475  -0.25010
  Beta  occ. eigenvalues --   -0.23744  -0.23505  -0.21698  -0.20652  -0.19581
  Beta  occ. eigenvalues --   -0.18640  -0.13589  -0.12085
  Beta virt. eigenvalues --    0.06693   0.07407   0.07984   0.08304   0.09141
  Beta virt. eigenvalues --    0.09511   0.10033   0.10525   0.10766   0.11490
  Beta virt. eigenvalues --    0.11800   0.12797   0.12972   0.13680   0.14013

 Mulliken charges and spin densities:
               1          2
     1  C    0.501417  -1.143688
     2  C   -0.422249   0.179848
     3  S   -0.001582  -0.055454
     4  C   -0.161290   0.048930
     5  C   -0.791272  -0.158575
     6  C   -0.155974   1.379640
     7  C   -0.336686  -0.163020
     8  C    1.091191  -1.422882
     9  C   -0.575656   0.129714
    10  C    1.785254  -2.558701
    11  N   -0.570833   0.229442
    12  H    0.040206   0.083855
    13  H   -0.345637   0.473137
    14  H   -0.323680   0.507949
    15  H   -0.099639   0.304397
    16  H   -0.005280   0.183962
    17  H    0.111759   0.095261
    18  H    0.344204  -0.033221
    19  H    0.063902   0.041880
    20  H    0.329627  -0.212857
    21  H   -0.013442   0.150579
    22  H   -0.121144   0.246230
    23  H   -0.229171   0.381785
    24  H   -0.003123   0.137504
    25  H    0.112542  -0.013086
    26  H   -0.452147   0.609237
    27  H   -0.100002   0.271049
    28  H   -0.506329   0.672298
    29  H   -0.150227   0.412009
    30  H   -0.014741   0.222778
 Sum of Mulliken charges =  -1.00000   1.00000

 Dipole moment (field-independent basis, Debye):
    X=              3.0553    Y=              0.0021    Z=             -2.4365  Tot=              3.9079
 Quadrupole moment (field-independent basis, Debye-Ang):
   XX=           -149.3968   YY=           -129.2194   ZZ=           -109.2999
   XY=             10.5365   XZ=              5.1741   YZ=             -0.0918

 Summary of Natural Population Analysis:

                                       Natural Population
                Natural  -----------------------------------------------
    Atom  No    Charge         Core      Valence    Rydberg      Total
 -----------------------------------------------------------------------
      C    1   -0.29216      0.99965     2.28602    0.00648     3.29216
      C    2   -0.25562      0.99961     2.24439    0.01162     3.25562
      S    3    0.07817      4.99963     2.90489    0.01731     7.92183
      C    4   -0.25407      0.99957     2.24589    0.00861     3.25407
      C    5   -0.19245      0.99956     2.18308    0.00981     3.19245
      C    6   -0.04123      0.99955     2.02599    0.01568     3.04123
      C    7   -0.18098      0.99960     2.17402    0.00736     3.18098
      C    8   -0.19155      0.99965     2.18365    0.00825     3.19155
      C    9   -0.18857      0.99960     2.17939    0.00959     3.18857
      C   10   -0.08392      0.99956     2.07123    0.01313     3.08392
      N   11   -0.42716      0.99977     2.91597    0.01142     3.92716
      H   12    0.09872      0.00000     0.39999    0.00129     0.40128
      H   13    0.10100      0.00000     0.39734    0.00166     0.39900
      H   14    0.10009      0.00000     0.39829    0.00162     0.39991
      H   15    0.10194      0.00000     0.39701    0.00105     0.39806
      H   16    0.09894      0.00000     0.39963    0.00143     0.40106
      H   17    0.09910      0.00000     0.39915    0.00175     0.40090
      H   18    0.12411      0.00000     0.37436    0.00153     0.37589
      H   19    0.09990      0.00000     0.39867    0.00143     0.40010
      H   20    0.09520      0.00000     0.40289    0.00191     0.40480
      H   21    0.09597      0.00000     0.40298    0.00105     0.40403
      H   22    0.09683      0.00000     0.40191    0.00126     0.40317
      H   23    0.09551      0.00000     0.40332    0.00117     0.40449
      H   24    0.09753      0.00000     0.40077    0.00169     0.40247
      H   25    0.09851      0.00000     0.39967    0.00182     0.40149
      H   26    0.09852      0.00000     0.39975    0.00173     0.40148
      H   27    0.08968      0.00000     0.40896    0.00135     0.41032
      H   28    0.08378      0.00000     0.41340    0.00281     0.41622
      H   29    0.17881      0.00000     0.31850    0.00269     0.32119
      H   30    0.17540      0.00000     0.32189    0.00271     0.32460
 =======================================================================
   * Total *   -0.00000     14.99575    32.85302    0.15122    48.00000

 Normal termination of Gaussian 16 at Tue Dec  8 19:44:46 2020.
