 Gaussian 16, Revision A.03,

 -----------------------------------------------------------
 # opt freq B3LYP/6-31G(d) empiricaldispersion=gd3bj scf=xqc
 -----------------------------------------------------------

 ------------------------------
 CID_85742193_JID_6894_neutraal
 ------------------------------
 Symbolic Z-matrix:
 Charge =  0 Multiplicity = 1

 SCF Done:  E(RB3LYP) =  -1051.31516796     A.U. after   15 cycles
 SCF Done:  E(RB3LYP) =  -1051.31860212     A.U. after   12 cycles
 SCF Done:  E(RB3LYP) =  -1051.31967846     A.U. after   13 cycles
 SCF Done:  E(RB3LYP) =  -1051.31945624     A.U. after   13 cycles
 SCF Done:  E(RB3LYP) =  -1051.32042386     A.U. after   12 cycles
 SCF Done:  E(RB3LYP) =  -1051.32052430     A.U. after   11 cycles
 SCF Done:  E(RB3LYP) =  -1051.32053707     A.U. after   11 cycles
 SCF Done:  E(RB3LYP) =  -1051.32054830     A.U. after   10 cycles
 SCF Done:  E(RB3LYP) =  -1051.32054915     A.U. after    8 cycles
 SCF Done:  E(RB3LYP) =  -1051.32054983     A.U. after    8 cycles
 SCF Done:  E(RB3LYP) =  -1051.32140968     A.U. after    9 cycles
 SCF Done:  E(RB3LYP) =  -1051.32141030     A.U. after   10 cycles
 SCF Done:  E(RB3LYP) =  -1051.32141141     A.U. after    9 cycles
 SCF Done:  E(RB3LYP) =  -1051.32141162     A.U. after    9 cycles
 SCF Done:  E(RB3LYP) =  -1051.32141178     A.U. after    9 cycles
 Optimization completed.
    -- Stationary point found.
 Normal termination of Gaussian 16 at Fri Dec 11 01:41:21 2020.

 --------------------------------------------------------------------
 #N Geom=AllCheck Guess=TCheck SCRF=Check GenChk RB3LYP/6-31G(d) Freq
 --------------------------------------------------------------------

 Structure from the checkpoint file:  "JID_6894.chk"
 ------------------------------
 CID_85742193_JID_6894_neutraal
 ------------------------------
 Charge =  0 Multiplicity = 1

 SCF Done:  E(RB3LYP) =  -1051.32141178     A.U. after    1 cycles

  Exact polarizability: 232.943 -15.784 155.893 -13.396 -15.351  91.159
 Approx polarizability: 331.871 -26.012 276.961 -22.090 -38.774 145.643

                      1                      2                      3
                      A                      A                      A
 Frequencies --     22.3088                23.8517                28.6428
 Red. masses --      3.1775                 1.2338                 5.0718
 Frc consts  --      0.0009                 0.0004                 0.0025
 IR Inten    --      0.7632                 0.0910                 0.3190

                      4                      5                      6
                      A                      A                      A
 Frequencies --     44.0470                69.0063                97.9746
 Red. masses --      9.0866                 5.9579                 4.4600
 Frc consts  --      0.0104                 0.0167                 0.0252
 IR Inten    --      0.4402                 0.1538                 0.1405

                      7                      8                      9
                      A                      A                      A
 Frequencies --    112.7954               212.7995               222.3899
 Red. masses --      5.5729                 3.0438                 4.3928
 Frc consts  --      0.0418                 0.0812                 0.1280
 IR Inten    --      0.2995                 1.1331                 0.0155

                     10                     11                     12
                      A                      A                      A
 Frequencies --    246.7400               285.9960               312.0319
 Red. masses --      5.2371                 6.0896                 5.8535
 Frc consts  --      0.1879                 0.2935                 0.3358
 IR Inten    --      0.1641                 0.6512                 0.5554

                     13                     14                     15
                      A                      A                      A
 Frequencies --    340.8072               413.9328               418.4230
 Red. masses --      3.8628                 3.6887                 2.4123
 Frc consts  --      0.2643                 0.3724                 0.2488
 IR Inten    --      0.0321                 0.8607                 1.8651

                     16                     17                     18
                      A                      A                      A
 Frequencies --    446.9445               502.4554               509.0365
 Red. masses --      3.0840                 4.3295                 4.0524
 Frc consts  --      0.3630                 0.6440                 0.6187
 IR Inten    --      1.9059                 2.8082                 7.1023

                     19                     20                     21
                      A                      A                      A
 Frequencies --    534.7029               581.6881               599.2699
 Red. masses --      5.0931                 3.8944                 4.0813
 Frc consts  --      0.8579                 0.7764                 0.8636
 IR Inten    --      1.4342                11.5383                28.7707

                     22                     23                     24
                      A                      A                      A
 Frequencies --    613.9497               651.3511               673.3302
 Red. masses --      2.5664                 3.1759                 2.2892
 Frc consts  --      0.5700                 0.7939                 0.6115
 IR Inten    --     28.9888                44.8820                60.7645

                     25                     26                     27
                      A                      A                      A
 Frequencies --    703.0345               714.1467               740.5570
 Red. masses --      3.8401                 2.5816                 1.2939
 Frc consts  --      1.1183                 0.7757                 0.4181
 IR Inten    --      6.8644                12.0061                11.7951

                     28                     29                     30
                      A                      A                      A
 Frequencies --    789.3737               803.2930               841.5205
 Red. masses --      3.6141                 1.5569                 5.3999
 Frc consts  --      1.3268                 0.5919                 2.2530
 IR Inten    --     26.0669                28.8022                 6.7583

                     31                     32                     33
                      A                      A                      A
 Frequencies --    854.8652               867.4339               895.0950
 Red. masses --      1.7641                 2.9062                 1.3286
 Frc consts  --      0.7596                 1.2884                 0.6272
 IR Inten    --      8.6956                19.9100                 2.5069

                     34                     35                     36
                      A                      A                      A
 Frequencies --    901.6954               917.4695               962.8450
 Red. masses --      4.2982                 1.4283                 2.0242
 Frc consts  --      2.0590                 0.7084                 1.1057
 IR Inten    --      3.5533                 2.8021                 6.4608

                     37                     38                     39
                      A                      A                      A
 Frequencies --    973.0897               975.6859              1013.8880
 Red. masses --      2.6547                 1.4501                 2.3268
 Frc consts  --      1.4811                 0.8133                 1.4092
 IR Inten    --      3.9126                 0.2932                 1.6749

                     40                     41                     42
                      A                      A                      A
 Frequencies --   1021.7302              1044.2231              1076.6106
 Red. masses --      4.4537                 2.1267                 1.5207
 Frc consts  --      2.7393                 1.3663                 1.0385
 IR Inten    --      0.4771                10.7905                 6.0472

                     43                     44                     45
                      A                      A                      A
 Frequencies --   1131.7369              1136.5748              1178.1662
 Red. masses --      1.5418                 1.5933                 1.4562
 Frc consts  --      1.1635                 1.2127                 1.1909
 IR Inten    --     35.2502               105.6898                 1.0581

                     46                     47                     48
                      A                      A                      A
 Frequencies --   1208.2821              1221.7626              1233.7035
 Red. masses --      1.1881                 1.7216                 1.4995
 Frc consts  --      1.0219                 1.5141                 1.3447
 IR Inten    --      0.9321                 3.6769                31.3118

                     49                     50                     51
                      A                      A                      A
 Frequencies --   1256.8000              1297.3255              1329.2282
 Red. masses --      1.4034                 4.0363                 1.4599
 Frc consts  --      1.3061                 4.0025                 1.5197
 IR Inten    --     67.9588                 0.9640                 0.6514

                     52                     53                     54
                      A                      A                      A
 Frequencies --   1338.2856              1367.2657              1382.0188
 Red. masses --      2.5635                 1.9460                 2.4061
 Frc consts  --      2.7051                 2.1434                 2.7077
 IR Inten    --      1.8527                 0.4604                50.3726

                     55                     56                     57
                      A                      A                      A
 Frequencies --   1417.9029              1443.4149              1466.2028
 Red. masses --      3.4569                 1.2511                 2.9253
 Frc consts  --      4.0948                 1.5358                 3.7052
 IR Inten    --      6.5888                 0.2485                 6.7744

                     58                     59                     60
                      A                      A                      A
 Frequencies --   1499.7753              1515.0346              1517.1321
 Red. masses --      1.1052                 2.2136                 1.1424
 Frc consts  --      1.4647                 2.9937                 1.5493
 IR Inten    --      8.4613                 2.4154                 6.7527

                     61                     62                     63
                      A                      A                      A
 Frequencies --   1525.5530              1546.6432              1614.8504
 Red. masses --      1.5957                 2.2038                 6.0296
 Frc consts  --      2.1880                 3.1061                 9.2641
 IR Inten    --     11.4962                20.0796                 8.5777

                     64                     65                     66
                      A                      A                      A
 Frequencies --   1640.5220              1666.2611              1858.5131
 Red. masses --      5.2807                 5.5906                 9.6202
 Frc consts  --      8.3735                 9.1452                19.5778
 IR Inten    --      5.2148                31.6479               326.3557

                     67                     68                     69
                      A                      A                      A
 Frequencies --   3044.8686              3070.0909              3100.1354
 Red. masses --      1.0390                 1.0653                 1.0983
 Frc consts  --      5.6753                 5.9159                 6.2193
 IR Inten    --     32.7424                14.2852                20.0896

                     70                     71                     72
                      A                      A                      A
 Frequencies --   3128.7435              3148.3618              3179.6622
 Red. masses --      1.1019                 1.0991                 1.0867
 Frc consts  --      6.3551                 6.4190                 6.4735
 IR Inten    --     14.7497                 5.8018                 5.5400

                     73                     74                     75
                      A                      A                      A
 Frequencies --   3183.3920              3195.7058              3211.8818
 Red. masses --      1.0897                 1.0910                 1.0949
 Frc consts  --      6.5065                 6.5648                 6.6551
 IR Inten    --     10.7732                23.9105                15.3231

                     76                     77                     78
                      A                      A                      A
 Frequencies --   3234.4097              3265.2016              3684.7348
 Red. masses --      1.0923                 1.0940                 1.0640
 Frc consts  --      6.7327                 6.8718                 8.5114
 IR Inten    --      2.2820                 0.3328                48.2452

 - Thermochemistry -
 -------------------
 Temperature   298.150 Kelvin.  Pressure   1.00000 Atm.
 Atom     1 has atomic number  6 and mass  12.00000

 Molecular mass:   232.05580 amu.
 Principal axes and moments of inertia in atomic units:
                           1         2         3
     Eigenvalues --  1811.243728041.586199011.16530
           X            0.99993  -0.00027  -0.01176
           Y           -0.00006   0.99960  -0.02830
           Z            0.01176   0.02829   0.99953
 This molecule is an asymmetric top.
 Rotational symmetry number  1.
 Warning -- assumption of classical behavior for rotation
           may cause significant error
 Rotational temperatures (Kelvin)      0.04782     0.01077     0.00961
 Rotational constants (GHZ):           0.99641     0.22443     0.20028
 Zero-point vibrational energy     576008.9 (Joules/Mol)
                                  137.66944 (Kcal/Mol)
 Warning -- explicit consideration of  22 degrees of freedom as
           vibrations may cause significant error
 Vibrational temperatures:     32.10    34.32    41.21    63.37    99.28
          (Kelvin)            140.96   162.29   306.17   319.97   355.00
                              411.48   448.94   490.35   595.56   602.02
                              643.05   722.92   732.39   769.32   836.92
                              862.22   883.34   937.15   968.77  1011.51
                             1027.50  1065.50  1135.73  1155.76  1210.76
                             1229.96  1248.04  1287.84  1297.34  1320.03
                             1385.32  1400.06  1403.79  1458.76  1470.04
                             1502.40  1549.00  1628.32  1635.28  1695.12
                             1738.45  1757.84  1775.02  1808.25  1866.56
                             1912.46  1925.49  1967.19  1988.42  2040.05
                             2076.75  2109.54  2157.84  2179.80  2182.81
                             2194.93  2225.27  2323.41  2360.35  2397.38
                             2673.99  4380.89  4417.18  4460.40  4501.56
                             4529.79  4574.82  4580.19  4597.91  4621.18
                             4653.59  4697.90  5301.51

 Zero-point correction=                           0.219390 (Hartree/Particle)
 Thermal correction to Energy=                    0.234285
 Thermal correction to Enthalpy=                  0.235229
 Thermal correction to Gibbs Free Energy=         0.173589
 Sum of electronic and zero-point Energies=          -1051.102022
 Sum of electronic and thermal Energies=             -1051.087127
 Sum of electronic and thermal Enthalpies=           -1051.086183
 Sum of electronic and thermal Free Energies=        -1051.147823

                     E (Thermal)             CV                S
                      KCal/Mol        Cal/Mol-Kelvin    Cal/Mol-Kelvin
 Total                  147.016             55.239            129.733
 Electronic               0.000              0.000              0.000
 Translational            0.889              2.981             42.227
 Rotational               0.889              2.981             33.239
 Vibrational            145.239             49.277             54.267
 Vibration     1          0.593              1.985              6.417
 Vibration     2          0.593              1.985              6.285
 Vibration     3          0.593              1.984              5.921
 Vibration     4          0.595              1.980              5.068
 Vibration     5          0.598              1.969              4.182
 Vibration     6          0.603              1.951              3.494
 Vibration     7          0.607              1.939              3.220
 Vibration     8          0.644              1.821              2.020
 Vibration     9          0.648              1.807              1.940
 Vibration    10          0.661              1.768              1.754
 Vibration    11          0.684              1.700              1.498
 Vibration    12          0.700              1.651              1.352
 Vibration    13          0.720              1.594              1.208
 Vibration    14          0.778              1.440              0.913
 Vibration    15          0.781              1.430              0.897
 Vibration    16          0.806              1.368              0.805
 Vibration    17          0.858              1.245              0.652
 Vibration    18          0.864              1.230              0.636
 Vibration    19          0.890              1.173              0.577
 Vibration    20          0.938              1.071              0.482
 Vibration    21          0.957              1.033              0.451
 Vibration    22          0.973              1.002              0.426

                           ! Non-Optimized Parameters !
 Normal termination of Gaussian 16 at Fri Dec 11 01:49:01 2020.

 ----------------------------------------------------------------------
 # B3LYP/6-311++G(d,p) empiricaldispersion=gd3bj scf=xqc pop=npa geom=c
 heck
 ----------------------------------------------------------------------

 --------------------------------------
 CID_85742193_JID_6894_Energie_neutraal
 --------------------------------------
 Structure from the checkpoint file:  "JID_6894.chk"
 Charge =  0 Multiplicity = 1

 SCF Done:  E(RB3LYP) =  -1051.53156859     A.U. after   17 cycles
 Normal termination of Gaussian 16 at Fri Dec 11 01:53:15 2020.

 ----------------------------------------------------------------------
 # B3LYP/6-311++G(d,p) empiricaldispersion=gd3bj scf=xqc pop=npa geom=c
 heck
 ----------------------------------------------------------------------

 ------------------------------------
 CID_85742193_JID_6894_Energie_kation
 ------------------------------------
 Structure from the checkpoint file:  "JID_6894.chk"
 Charge =  1 Multiplicity = 2

 SCF Done:  E(UB3LYP) =  -1051.24976770     A.U. after   27 cycles
 Normal termination of Gaussian 16 at Fri Dec 11 02:02:49 2020.
 Gaussian 16:  ES64L-G16RevA.03 25-Dec-2016

 ----------------------------------------------------------------------
 # B3LYP/6-311++G(d,p) empiricaldispersion=gd3bj scf=xqc pop=npa geom=c
 heck
 ----------------------------------------------------------------------

 -----------------------------------
 CID_85742193_JID_6894_Energie_anion
 -----------------------------------
 Structure from the checkpoint file:  "JID_6894.chk"
 Charge = -1 Multiplicity = 2

                         Standard orientation:
 ---------------------------------------------------------------------
 Center     Atomic      Atomic             Coordinates (Angstroms)
 Number     Number       Type             X           Y           Z
 ---------------------------------------------------------------------
      1          6           0       -4.912191   -0.768502    1.232424
      2          6           0       -3.834569    0.007200    0.514304
      3          6           0       -2.537733   -0.498574    0.411883
      4          6           0       -1.524422    0.195621   -0.269773
      5          6           0       -1.837271    1.431835   -0.857341
      6          6           0       -3.123637    1.953079   -0.748734
      7          6           0       -4.117022    1.248705   -0.070391
      8          6           0       -0.164362   -0.341903   -0.366336
      9          6           0        1.015662    0.344559   -0.520884
     10          6           0        2.170211   -0.496611   -0.586079
     11          6           0        1.850000   -1.823372   -0.473027
     12         16           0        0.142675   -2.068996   -0.303564
     13          6           0        3.584546    0.015957   -0.729956
     14          6           0        4.041353    0.728793    0.529722
     15          8           0        4.772501    0.271779    1.376663
     16          8           0        3.500670    1.971645    0.618893
     17          1           0       -4.487858   -1.573310    1.840402
     18          1           0       -5.500134   -0.119561    1.891064
     19          1           0       -5.611421   -1.225384    0.520352
     20          1           0       -2.302195   -1.445721    0.890678
     21          1           0       -1.075827    1.970249   -1.412519
     22          1           0       -3.355172    2.911661   -1.204867
     23          1           0       -5.119674    1.662119    0.006294
     24          1           0        1.072314    1.426234   -0.548563
     25          1           0        2.523861   -2.669410   -0.482105
     26          1           0        4.274773   -0.811293   -0.904220
     27          1           0        3.650499    0.714258   -1.572237
     28          1           0        3.799290    2.335972    1.473418
 ---------------------------------------------------------------------

 SCF Done:  E(UB3LYP) =  -1051.53143711     A.U. after   33 cycles
 SCF Done:  E(UB3LYP) =  -1051.53143711     a.u. after    1 cycles

 The electronic state is 2-A.
 Alpha  occ. eigenvalues --  -88.73011 -19.06819 -19.01367 -10.20305 -10.08272
 Alpha  occ. eigenvalues --  -10.06239 -10.05631 -10.05593 -10.05542 -10.05199
 Alpha  occ. eigenvalues --  -10.04546 -10.04344 -10.03687 -10.03568 -10.03268
 Alpha  occ. eigenvalues --  -10.02798  -7.81675  -5.77970  -5.77613  -5.77279
 Alpha  occ. eigenvalues --   -1.00813  -0.92003  -0.75064  -0.72725  -0.67493
 Alpha  occ. eigenvalues --   -0.65289  -0.62752  -0.59061  -0.57163  -0.56404
 Alpha  occ. eigenvalues --   -0.50799  -0.48451  -0.46456  -0.42395  -0.40572
 Alpha  occ. eigenvalues --   -0.39513  -0.38509  -0.37861  -0.36465  -0.34089
 Alpha  occ. eigenvalues --   -0.33046  -0.31954  -0.31351  -0.30738  -0.30034
 Alpha  occ. eigenvalues --   -0.28742  -0.27774  -0.27602  -0.26143  -0.24803
 Alpha  occ. eigenvalues --   -0.24386  -0.22761  -0.22536  -0.22153  -0.21752
 Alpha  occ. eigenvalues --   -0.20052  -0.18473  -0.14704  -0.12497  -0.11726
 Alpha  occ. eigenvalues --   -0.08544   0.04759
 Alpha virt. eigenvalues --    0.06830   0.07758   0.08355   0.09138   0.09673
 Alpha virt. eigenvalues --    0.10282   0.10380   0.10512   0.11695   0.11964
 Alpha virt. eigenvalues --    0.12130   0.13352   0.13580   0.14096   0.14503

  Beta  occ. eigenvalues --  -88.72962 -19.06781 -19.01348 -10.20287 -10.08264
  Beta  occ. eigenvalues --  -10.06237 -10.05691 -10.05577 -10.05430 -10.04923
  Beta  occ. eigenvalues --  -10.04566 -10.04172 -10.03611 -10.03475 -10.03035
  Beta  occ. eigenvalues --  -10.02668  -7.81631  -5.77946  -5.77591  -5.77122
  Beta  occ. eigenvalues --   -1.00755  -0.91953  -0.74785  -0.72508  -0.67378
  Beta  occ. eigenvalues --   -0.65140  -0.62401  -0.58763  -0.56978  -0.56114
  Beta  occ. eigenvalues --   -0.50651  -0.48036  -0.46332  -0.42138  -0.40379
  Beta  occ. eigenvalues --   -0.39438  -0.38396  -0.37824  -0.36317  -0.33964
  Beta  occ. eigenvalues --   -0.32903  -0.31860  -0.31293  -0.30644  -0.29984
  Beta  occ. eigenvalues --   -0.28693  -0.27647  -0.27512  -0.25624  -0.24665
  Beta  occ. eigenvalues --   -0.23965  -0.22548  -0.22129  -0.21910  -0.21607
  Beta  occ. eigenvalues --   -0.19854  -0.18363  -0.13445  -0.11902  -0.11038
  Beta  occ. eigenvalues --   -0.07265
  Beta virt. eigenvalues --    0.07273   0.07693   0.08650   0.08992   0.09316
  Beta virt. eigenvalues --    0.09744   0.10275   0.10421   0.10586   0.11644
  Beta virt. eigenvalues --    0.11954   0.12172   0.13295   0.14034   0.14334

 Mulliken charges and spin densities:
               1          2
     1  C   -0.362082  -0.006327
     2  C    0.284156   0.005485
     3  C   -0.437946   0.061699
     4  C    0.802725   0.032636
     5  C   -0.488391   0.096711
     6  C   -0.504340  -0.016794
     7  C   -0.546717   0.189180
     8  C    0.290652  -0.048350
     9  C   -0.063162   0.391723
    10  C   -0.329083   0.093116
    11  C    0.771397   0.089226
    12  S   -0.833136   0.110272
    13  C   -0.294246  -0.485889
    14  C    0.013072  -0.072621
    15  O   -0.325031   0.023929
    16  O   -0.168325   0.020153
    17  H    0.133931   0.003443
    18  H    0.115120   0.005335
    19  H    0.136816   0.004628
    20  H    0.030908   0.013123
    21  H    0.094024  -0.008915
    22  H    0.118286   0.002858
    23  H    0.097461  -0.017117
    24  H    0.132456   0.027525
    25  H    0.167390   0.041242
    26  H    0.071025   0.096394
    27  H    0.133638   0.030739
    28  H   -0.040598   0.316597
 Sum of Mulliken charges =  -1.00000   1.00000

 Dipole moment (field-independent basis, Debye):
    X=             -1.3085    Y=             -0.0939    Z=             -0.9841  Tot=              1.6399
 Quadrupole moment (field-independent basis, Debye-Ang):
   XX=           -160.1164   YY=           -119.2038   ZZ=           -117.4688
   XY=              1.4438   XZ=            -10.4523   YZ=             -3.1734

 Summary of Natural Population Analysis:

                                       Natural Population
                Natural  -----------------------------------------------
    Atom  No    Charge         Core      Valence    Rydberg      Total
 -----------------------------------------------------------------------
      C    1   -0.28831      0.99964     2.28408    0.00459     3.28831
      C    2   -0.02956      0.99952     2.02210    0.00794     3.02956
      C    3   -0.07818      0.99949     2.07164    0.00706     3.07818
      C    4   -0.00968      0.99948     1.99999    0.01021     3.00968
      C    5   -0.08155      0.99953     2.07447    0.00755     3.08155
      C    6   -0.10802      0.99958     2.09926    0.00918     3.10802
      C    7   -0.07328      0.99952     2.06453    0.00923     3.07328
      C    8   -0.06709      0.99946     2.05335    0.01428     3.06709
      C    9   -0.10461      0.99944     2.09528    0.00989     3.10461
      C   10   -0.06544      0.99946     2.05644    0.00954     3.06544
      C   11   -0.14413      0.99946     2.13351    0.01116     3.14413
      S   12    0.20520      4.99944     2.77472    0.02063     7.79480
      C   13   -0.23660      0.99954     2.22809    0.00897     3.23660
      C   14    0.41308      0.99973     1.55975    0.02744     2.58692
      O   15   -0.30948      0.99986     3.30334    0.00627     4.30948
      O   16   -0.34585      0.99988     3.33919    0.00678     4.34585
      H   17    0.09809      0.00000     0.40100    0.00091     0.40191
      H   18    0.09649      0.00000     0.40253    0.00098     0.40351
      H   19    0.09724      0.00000     0.40174    0.00102     0.40276
      H   20    0.09566      0.00000     0.40316    0.00117     0.40434
      H   21    0.09588      0.00000     0.40288    0.00125     0.40412
      H   22    0.09100      0.00000     0.40793    0.00107     0.40900
      H   23    0.08691      0.00000     0.41173    0.00136     0.41309
      H   24    0.10532      0.00000     0.39339    0.00129     0.39468
      H   25    0.09942      0.00000     0.39936    0.00122     0.40058
      H   26    0.11030      0.00000     0.38844    0.00126     0.38970
      H   27    0.10893      0.00000     0.38975    0.00132     0.39107
      H   28    0.23825      0.00000     0.25615    0.00559     0.26175
 =======================================================================
   * Total *   -0.00000     19.99303    40.81780    0.18917    61.00000

 Normal termination of Gaussian 16 at Fri Dec 11 02:14:16 2020.
