 Gaussian 16, Revision A.03,

 -----------------------------------------------------------
 # opt freq B3LYP/6-31G(d) empiricaldispersion=gd3bj scf=xqc
 -----------------------------------------------------------

 ------------------------------
 CID_58171882_JID_2618_neutraal
 ------------------------------
 Symbolic Z-matrix:
 Charge =  0 Multiplicity = 1

 SCF Done:  E(RB3LYP) =  -589.332516438     A.U. after   15 cycles
 SCF Done:  E(RB3LYP) =  -589.337999478     A.U. after   12 cycles
 SCF Done:  E(RB3LYP) =  -589.338311117     A.U. after   12 cycles
 SCF Done:  E(RB3LYP) =  -589.339191759     A.U. after   12 cycles
 SCF Done:  E(RB3LYP) =  -589.339217421     A.U. after   12 cycles
 SCF Done:  E(RB3LYP) =  -589.339510053     A.U. after   11 cycles
 SCF Done:  E(RB3LYP) =  -589.339620135     A.U. after   10 cycles
 SCF Done:  E(RB3LYP) =  -589.339722458     A.U. after   11 cycles
 SCF Done:  E(RB3LYP) =  -589.339744091     A.U. after   10 cycles
 SCF Done:  E(RB3LYP) =  -589.339769749     A.U. after   10 cycles
 SCF Done:  E(RB3LYP) =  -589.339794233     A.U. after   10 cycles
 SCF Done:  E(RB3LYP) =  -589.339798289     A.U. after    9 cycles
 SCF Done:  E(RB3LYP) =  -589.339799108     A.U. after    8 cycles
 SCF Done:  E(RB3LYP) =  -589.339799562     A.U. after    8 cycles
 SCF Done:  E(RB3LYP) =  -589.339799648     A.U. after    7 cycles
 Optimization completed.
    -- Stationary point found.
 Normal termination of Gaussian 16 at Wed Dec  9 17:54:07 2020.

 --------------------------------------------------------------------
 #N Geom=AllCheck Guess=TCheck SCRF=Check GenChk RB3LYP/6-31G(d) Freq
 --------------------------------------------------------------------

 Structure from the checkpoint file:  "JID_2618.chk"
 ------------------------------
 CID_58171882_JID_2618_neutraal
 ------------------------------
 Charge =  0 Multiplicity = 1

 SCF Done:  E(RB3LYP) =  -589.339799648     A.U. after    1 cycles

  Exact polarizability: 112.900   3.447 103.373  -1.675  -1.774  72.053
 Approx polarizability: 138.750  -3.067 163.258  -2.793  -6.397 106.898

                      1                      2                      3
                      A                      A                      A
 Frequencies --     48.9972                67.0172               101.7748
 Red. masses --      3.8572                 5.2324                 2.7328
 Frc consts  --      0.0055                 0.0138                 0.0167
 IR Inten    --      2.1932                 6.6488                 0.6111

                      4                      5                      6
                      A                      A                      A
 Frequencies --    128.9943               143.7489               161.9411
 Red. masses --      1.4938                 2.3225                 2.7926
 Frc consts  --      0.0146                 0.0283                 0.0431
 IR Inten    --      0.4189                 5.7606                 2.0077

                      7                      8                      9
                      A                      A                      A
 Frequencies --    178.1203               209.6110               250.2821
 Red. masses --      1.2204                 2.5261                 2.2047
 Frc consts  --      0.0228                 0.0654                 0.0814
 IR Inten    --      0.8886                 2.5213                 8.4215

                     10                     11                     12
                      A                      A                      A
 Frequencies --    285.6497               320.9673               355.6266
 Red. masses --      3.7359                 3.9446                 3.3747
 Frc consts  --      0.1796                 0.2394                 0.2515
 IR Inten    --      4.4900                 5.7493                11.6112

                     13                     14                     15
                      A                      A                      A
 Frequencies --    364.8779               445.0669               505.4521
 Red. masses --      2.2942                 6.2475                 3.4429
 Frc consts  --      0.1800                 0.7291                 0.5183
 IR Inten    --      1.8238                14.9438                 4.1193

                     16                     17                     18
                      A                      A                      A
 Frequencies --    536.7863               584.3116               602.7710
 Red. masses --      2.1318                 3.2742                 4.5943
 Frc consts  --      0.3619                 0.6586                 0.9835
 IR Inten    --     56.6432                10.2654                 7.7953

                     19                     20                     21
                      A                      A                      A
 Frequencies --    659.9928               687.5182               727.1681
 Red. masses --      2.1885                 2.7880                 4.3744
 Frc consts  --      0.5617                 0.7764                 1.3628
 IR Inten    --     25.8012                19.8357                 2.1833

                     22                     23                     24
                      A                      A                      A
 Frequencies --    792.6292               809.7683               949.4474
 Red. masses --      7.5616                 2.5173                 2.2029
 Frc consts  --      2.7990                 0.9725                 1.1700
 IR Inten    --     26.4929                 3.9906                 2.6926

                     25                     26                     27
                      A                      A                      A
 Frequencies --    979.0078              1012.6555              1021.4750
 Red. masses --      2.3921                 2.2625                 2.3197
 Frc consts  --      1.3508                 1.3670                 1.4261
 IR Inten    --      2.0033                14.0690                20.6923

                     28                     29                     30
                      A                      A                      A
 Frequencies --   1078.0148              1111.5432              1140.1093
 Red. masses --      1.9735                 1.8092                 1.8093
 Frc consts  --      1.3513                 1.3170                 1.3856
 IR Inten    --     19.1710                31.7575                62.0180

                     31                     32                     33
                      A                      A                      A
 Frequencies --   1155.6875              1167.2863              1187.2530
 Red. masses --      1.4406                 1.3281                 2.0749
 Frc consts  --      1.1337                 1.0662                 1.7232
 IR Inten    --     24.2617                 2.4090                33.0169

                     34                     35                     36
                      A                      A                      A
 Frequencies --   1195.1382              1224.9399              1267.6210
 Red. masses --      2.3999                 2.1156                 1.5731
 Frc consts  --      2.0197                 1.8703                 1.4893
 IR Inten    --     22.1480                29.6388                16.1978

                     37                     38                     39
                      A                      A                      A
 Frequencies --   1275.1245              1302.6053              1323.9720
 Red. masses --      2.2057                 1.6958                 1.5220
 Frc consts  --      2.1130                 1.6953                 1.5719
 IR Inten    --     88.5924                 3.9188                61.8025

                     40                     41                     42
                      A                      A                      A
 Frequencies --   1369.9180              1383.3285              1417.8300
 Red. masses --      1.4999                 1.8556                 1.7026
 Frc consts  --      1.6584                 2.0921                 2.0166
 IR Inten    --      4.2021               208.4708               101.2230

                     43                     44                     45
                      A                      A                      A
 Frequencies --   1426.3729              1451.8631              1474.3444
 Red. masses --      1.8724                 1.2404                 1.5464
 Frc consts  --      2.2444                 1.5405                 1.9805
 IR Inten    --    147.8920                16.7557                45.8401

                     46                     47                     48
                      A                      A                      A
 Frequencies --   1486.9756              1500.6065              1508.7155
 Red. masses --      1.6810                 1.2756                 1.1512
 Frc consts  --      2.1899                 1.6924                 1.5438
 IR Inten    --     59.3633                60.9613                 2.6257

                     49                     50                     51
                      A                      A                      A
 Frequencies --   1525.4392              1529.2211              1530.7180
 Red. masses --      1.0811                 1.0534                 1.0885
 Frc consts  --      1.4822                 1.4514                 1.5027
 IR Inten    --     24.2365                10.4319                 4.5457

                     52                     53                     54
                      A                      A                      A
 Frequencies --   1532.8777              1553.7133              1563.7041
 Red. masses --      1.0955                 1.0611                 1.3118
 Frc consts  --      1.5166                 1.5092                 1.8898
 IR Inten    --      5.0795                33.9808                18.1928

                     55                     56                     57
                      A                      A                      A
 Frequencies --   1772.4354              1784.4904              2990.9354
 Red. masses --     10.1638                 7.8462                 1.0748
 Frc consts  --     18.8126                14.7211                 5.6647
 IR Inten    --    267.6629               408.9329                29.8292

                     58                     59                     60
                      A                      A                      A
 Frequencies --   3004.0629              3018.9876              3035.7703
 Red. masses --      1.0747                 1.0636                 1.0423
 Frc consts  --      5.7144                 5.7115                 5.6593
 IR Inten    --     30.8803                51.9797                67.4024

                     61                     62                     63
                      A                      A                      A
 Frequencies --   3043.4682              3068.2209              3087.6023
 Red. masses --      1.0394                 1.0984                 1.1021
 Frc consts  --      5.6727                 6.0923                 6.1906
 IR Inten    --     47.9965                47.9920                32.4334

                     64                     65                     66
                      A                      A                      A
 Frequencies --   3102.7102              3144.9351              3169.3340
 Red. masses --      1.0992                 1.1029                 1.0903
 Frc consts  --      6.2348                 6.4271                 6.4526
 IR Inten    --     31.7290                14.6112                 3.8687

                     67                     68                     69
                      A                      A                      A
 Frequencies --   3191.0670              3192.4645              3615.4873
 Red. masses --      1.0966                 1.0871                 1.0759
 Frc consts  --      6.5794                 6.5279                 8.2860
 IR Inten    --      0.9061                 4.1381                33.2667

 - Thermochemistry -
 -------------------
 Temperature   298.150 Kelvin.  Pressure   1.00000 Atm.
 Atom     1 has atomic number  6 and mass  12.00000

 Molecular mass:   171.10078 amu.
 Principal axes and moments of inertia in atomic units:
                           1         2         3
     Eigenvalues --  1089.344952886.704663590.74420
           X            0.99891   0.04663  -0.00107
           Y           -0.04661   0.99880   0.01513
           Z            0.00177  -0.01507   0.99988
 This molecule is an asymmetric top.
 Rotational symmetry number  1.
 Warning -- assumption of classical behavior for rotation
           may cause significant error
 Rotational temperatures (Kelvin)      0.07951     0.03000     0.02412
 Rotational constants (GHZ):           1.65672     0.62519     0.50261
 Zero-point vibrational energy     561279.2 (Joules/Mol)
                                  134.14895 (Kcal/Mol)
 Warning -- explicit consideration of  18 degrees of freedom as
           vibrations may cause significant error
 Vibrational temperatures:     70.50    96.42   146.43   185.59   206.82
          (Kelvin)            233.00   256.28   301.58   360.10   410.99
                              461.80   511.67   524.98   640.35   727.23
                              772.32   840.69   867.25   949.58   989.19
                             1046.23  1140.42  1165.08  1366.04  1408.57
                             1456.99  1469.67  1551.02  1599.26  1640.36
                             1662.78  1679.46  1708.19  1719.54  1762.42
                             1823.82  1834.62  1874.16  1904.90  1971.01
                             1990.30  2039.94  2052.23  2088.91  2121.25
                             2139.43  2159.04  2170.71  2194.77  2200.21
                             2202.36  2205.47  2235.45  2249.82  2550.14
                             2567.48  4303.29  4322.18  4343.65  4367.80
                             4378.87  4414.49  4442.37  4464.11  4524.86
                             4559.96  4591.23  4593.24  5201.88

 Zero-point correction=                           0.213780 (Hartree/Particle)
 Thermal correction to Energy=                    0.226064
 Thermal correction to Enthalpy=                  0.227009
 Thermal correction to Gibbs Free Energy=         0.174994
 Sum of electronic and zero-point Energies=           -589.126020
 Sum of electronic and thermal Energies=              -589.113735
 Sum of electronic and thermal Enthalpies=            -589.112791
 Sum of electronic and thermal Free Energies=         -589.164806

                     E (Thermal)             CV                S
                      KCal/Mol        Cal/Mol-Kelvin    Cal/Mol-Kelvin
 Total                  141.858             44.510            109.474
 Electronic               0.000              0.000              0.000
 Translational            0.889              2.981             41.319
 Rotational               0.889              2.981             30.802
 Vibrational            140.080             38.549             37.353
 Vibration     1          0.595              1.978              4.857
 Vibration     2          0.598              1.970              4.239
 Vibration     3          0.604              1.948              3.420
 Vibration     4          0.611              1.924              2.961
 Vibration     5          0.616              1.909              2.753
 Vibration     6          0.622              1.889              2.527
 Vibration     7          0.629              1.869              2.348
 Vibration     8          0.642              1.826              2.047
 Vibration     9          0.663              1.762              1.729
 Vibration    10          0.683              1.700              1.500
 Vibration    11          0.706              1.633              1.305
 Vibration    12          0.731              1.564              1.141
 Vibration    13          0.738              1.545              1.101
 Vibration    14          0.804              1.372              0.811
 Vibration    15          0.861              1.238              0.645
 Vibration    16          0.892              1.169              0.572
 Vibration    17          0.941              1.065              0.477
 Vibration    18          0.961              1.026              0.445

                           ! Non-Optimized Parameters !
 Normal termination of Gaussian 16 at Wed Dec  9 18:01:19 2020.

 ----------------------------------------------------------------------
 # B3LYP/6-311++G(d,p) empiricaldispersion=gd3bj scf=xqc pop=npa geom=c
 heck
 ----------------------------------------------------------------------

 --------------------------------------
 CID_58171882_JID_2618_Energie_neutraal
 --------------------------------------
 Structure from the checkpoint file:  "JID_2618.chk"
 Charge =  0 Multiplicity = 1

 SCF Done:  E(RB3LYP) =  -589.515680962     A.U. after   13 cycles
 Normal termination of Gaussian 16 at Wed Dec  9 18:04:30 2020.

 ----------------------------------------------------------------------
 # B3LYP/6-311++G(d,p) empiricaldispersion=gd3bj scf=xqc pop=npa geom=c
 heck
 ----------------------------------------------------------------------

 ------------------------------------
 CID_58171882_JID_2618_Energie_kation
 ------------------------------------
 Structure from the checkpoint file:  "JID_2618.chk"
 Charge =  1 Multiplicity = 2

 SCF Done:  E(UB3LYP) =  -589.199429561     A.U. after   29 cycles
 Normal termination of Gaussian 16 at Wed Dec  9 18:13:33 2020.
 Gaussian 16:  ES64L-G16RevA.03 25-Dec-2016

 ----------------------------------------------------------------------
 # B3LYP/6-311++G(d,p) empiricaldispersion=gd3bj scf=xqc pop=npa geom=c
 heck
 ----------------------------------------------------------------------

 -----------------------------------
 CID_58171882_JID_2618_Energie_anion
 -----------------------------------
 Structure from the checkpoint file:  "JID_2618.chk"
 Charge = -1 Multiplicity = 2

                         Standard orientation:
 ---------------------------------------------------------------------
 Center     Atomic      Atomic             Coordinates (Angstroms)
 Number     Number       Type             X           Y           Z
 ---------------------------------------------------------------------
      1          6           0        2.416917    1.711365    0.969653
      2          7           0        2.797564    0.642858    0.050755
      3          6           0        2.079097   -0.518732   -0.152007
      4          8           0        2.631673   -1.589953   -0.377514
      5          7           0        0.687345   -0.390089   -0.070703
      6          6           0       -0.070685   -1.626965   -0.203018
      7          6           0       -1.386273   -1.461282    0.538584
      8          7           0       -2.086751   -0.242894    0.142842
      9          6           0       -1.464758    0.846403   -0.401691
     10          8           0       -2.041776    1.897723   -0.659089
     11          6           0        0.013919    0.709819   -0.759027
     12          6           0       -3.476096   -0.130890    0.555472
     13          1           0        1.542379    1.408737    1.550944
     14          1           0        2.184196    2.647082    0.446157
     15          1           0        3.237893    1.908262    1.666529
     16          1           0        3.787961    0.451313   -0.019807
     17          1           0       -0.253525   -1.862606   -1.263648
     18          1           0        0.511310   -2.444801    0.220354
     19          1           0       -1.203559   -1.448097    1.623474
     20          1           0       -2.039251   -2.316597    0.324163
     21          1           0        0.470220    1.669032   -0.527576
     22          1           0        0.070001    0.581697   -1.853419
     23          1           0       -4.067079   -0.942886    0.115218
     24          1           0       -3.562327   -0.191084    1.648798
     25          1           0       -3.857224    0.830366    0.213592
 ---------------------------------------------------------------------

 SCF Done:  E(UB3LYP) =  -589.504480020     A.U. after   30 cycles

 The electronic state is 2-A.
 Alpha  occ. eigenvalues --  -18.99212 -18.99197 -14.25282 -14.24486 -14.23771
 Alpha  occ. eigenvalues --  -10.20031 -10.17954 -10.12344 -10.11577 -10.11235
 Alpha  occ. eigenvalues --  -10.10768 -10.09982  -0.95840  -0.94607  -0.86328
 Alpha  occ. eigenvalues --   -0.83752  -0.81751  -0.67553  -0.65236  -0.61164
 Alpha  occ. eigenvalues --   -0.58736  -0.56541  -0.48803  -0.44403  -0.43603
 Alpha  occ. eigenvalues --   -0.41714  -0.40230  -0.39604  -0.36979  -0.36733
 Alpha  occ. eigenvalues --   -0.35629  -0.35145  -0.33297  -0.31724  -0.30833
 Alpha  occ. eigenvalues --   -0.30757  -0.30153  -0.28695  -0.28185  -0.27147
 Alpha  occ. eigenvalues --   -0.26208  -0.18935  -0.17738  -0.16138  -0.15358
 Alpha  occ. eigenvalues --   -0.14693   0.04205
 Alpha virt. eigenvalues --    0.05801   0.07735   0.08236   0.08383   0.08970
 Alpha virt. eigenvalues --    0.09803   0.11139   0.11421   0.11744   0.11872
 Alpha virt. eigenvalues --    0.12308   0.12885   0.13500   0.14800   0.14938

  Beta  occ. eigenvalues --  -18.99202 -18.99195 -14.25284 -14.24473 -14.23753
  Beta  occ. eigenvalues --  -10.20030 -10.17947 -10.12335 -10.11535 -10.11223
  Beta  occ. eigenvalues --  -10.10718 -10.09942  -0.95830  -0.94591  -0.86312
  Beta  occ. eigenvalues --   -0.83733  -0.81722  -0.67514  -0.65204  -0.61083
  Beta  occ. eigenvalues --   -0.58674  -0.56481  -0.48769  -0.44351  -0.43575
  Beta  occ. eigenvalues --   -0.41668  -0.40185  -0.39527  -0.36943  -0.36695
  Beta  occ. eigenvalues --   -0.35594  -0.35104  -0.33271  -0.31692  -0.30791
  Beta  occ. eigenvalues --   -0.30700  -0.30113  -0.28654  -0.28149  -0.27120
  Beta  occ. eigenvalues --   -0.26170  -0.18918  -0.17715  -0.16108  -0.15330
  Beta  occ. eigenvalues --   -0.14665
  Beta virt. eigenvalues --    0.06718   0.07249   0.08197   0.08873   0.09027
  Beta virt. eigenvalues --    0.09539   0.10428   0.11380   0.11922   0.12027
  Beta virt. eigenvalues --    0.12194   0.12548   0.13173   0.13916   0.14948

 Mulliken charges and spin densities:
               1          2
     1  C    1.066317  -1.476042
     2  N   -0.452480   0.216893
     3  C    0.057526   0.137901
     4  O   -0.371526   0.003331
     5  N   -0.036847   0.081104
     6  C   -0.659241   0.338542
     7  C    1.351783  -1.774286
     8  N   -0.329995   0.329936
     9  C   -0.534801   0.592671
    10  O   -0.358199  -0.001880
    11  C    0.439626  -0.830670
    12  C    0.835948  -1.109936
    13  H   -0.171679   0.353234
    14  H   -0.236337   0.396682
    15  H   -0.811100   0.976533
    16  H    0.010417   0.307965
    17  H    0.095021   0.068862
    18  H   -0.072799   0.288735
    19  H   -0.173457   0.372183
    20  H   -0.425383   0.610397
    21  H    0.461836  -0.260021
    22  H    0.037336   0.163640
    23  H   -0.405799   0.564151
    24  H   -0.349803   0.509221
    25  H    0.033634   0.140854
 Sum of Mulliken charges =  -1.00000   1.00000

 Dipole moment (field-independent basis, Debye):
    X=             -0.0977    Y=              0.1771    Z=             -3.4250  Tot=              3.4310
 Quadrupole moment (field-independent basis, Debye-Ang):
   XX=           -146.6523   YY=           -119.9655   ZZ=           -105.7673
   XY=             -7.6915   XZ=             -4.5657   YZ=             -1.6266

 Summary of Natural Population Analysis:

                                       Natural Population
                Natural  -----------------------------------------------
    Atom  No    Charge         Core      Valence    Rydberg      Total
 -----------------------------------------------------------------------
      C    1   -0.18446      0.99964     2.17602    0.00879     3.18446
      N    2   -0.32994      0.99968     2.81982    0.01044     3.82994
      C    3    0.41504      0.99966     1.56166    0.02363     2.58496
      O    4   -0.33444      0.99988     3.32933    0.00523     4.33444
      N    5   -0.27795      0.99965     2.76754    0.01077     3.77795
      C    6   -0.08976      0.99961     2.07802    0.01213     3.08976
      C    7   -0.08099      0.99960     2.07000    0.01138     3.08099
      N    8   -0.25064      0.99965     2.74039    0.01060     3.75064
      C    9    0.34398      0.99963     1.63475    0.02164     2.65602
      O   10   -0.32923      0.99988     3.32357    0.00578     4.32923
      C   11   -0.12134      0.99956     2.11156    0.01021     3.12134
      C   12   -0.17924      0.99964     2.17127    0.00833     3.17924
      H   13    0.10301      0.00000     0.39500    0.00199     0.39699
      H   14    0.09082      0.00000     0.40773    0.00145     0.40918
      H   15    0.10232      0.00000     0.39456    0.00313     0.39768
      H   16    0.19547      0.00000     0.30212    0.00240     0.30453
      H   17    0.08906      0.00000     0.40966    0.00128     0.41094
      H   18    0.11866      0.00000     0.38025    0.00109     0.38134
      H   19    0.09675      0.00000     0.40081    0.00243     0.40325
      H   20    0.10148      0.00000     0.39581    0.00271     0.39852
      H   21    0.11621      0.00000     0.38209    0.00170     0.38379
      H   22    0.09876      0.00000     0.39997    0.00127     0.40124
      H   23    0.09643      0.00000     0.40190    0.00168     0.40357
      H   24    0.09579      0.00000     0.40252    0.00169     0.40421
      H   25    0.11420      0.00000     0.38467    0.00113     0.38580
 =======================================================================
   * Total *   -0.00000     11.99609    33.84104    0.16287    46.00000

 Normal termination of Gaussian 16 at Wed Dec  9 18:22:06 2020.
