 Gaussian 16, Revision A.03,

 -----------------------------------------------------------
 # opt freq B3LYP/6-31G(d) empiricaldispersion=gd3bj scf=xqc
 -----------------------------------------------------------

 -------------------------------
 CID_119171646_JID_7584_neutraal
 -------------------------------
 Symbolic Z-matrix:
 Charge =  0 Multiplicity = 1

 SCF Done:  E(RB3LYP) =  -1146.20102032     A.U. after   15 cycles
 SCF Done:  E(RB3LYP) =  -1146.20537698     A.U. after   13 cycles
 SCF Done:  E(RB3LYP) =  -1146.20530020     A.U. after   13 cycles
 SCF Done:  E(RB3LYP) =  -1146.20605982     A.U. after   13 cycles
 SCF Done:  E(RB3LYP) =  -1146.20622399     A.U. after   11 cycles
 SCF Done:  E(RB3LYP) =  -1146.20633364     A.U. after   12 cycles
 SCF Done:  E(RB3LYP) =  -1146.20635574     A.U. after   11 cycles
 SCF Done:  E(RB3LYP) =  -1146.20637227     A.U. after   10 cycles
 SCF Done:  E(RB3LYP) =  -1146.20639237     A.U. after   11 cycles
 SCF Done:  E(RB3LYP) =  -1146.20640461     A.U. after   11 cycles
 SCF Done:  E(RB3LYP) =  -1146.20660779     A.U. after    9 cycles
 SCF Done:  E(RB3LYP) =  -1146.20660882     A.U. after   10 cycles
 SCF Done:  E(RB3LYP) =  -1146.20660975     A.U. after   10 cycles
 SCF Done:  E(RB3LYP) =  -1146.20661030     A.U. after    9 cycles
 Optimization completed.
    -- Stationary point found.
 Normal termination of Gaussian 16 at Sun Dec 13 16:33:37 2020.

 --------------------------------------------------------------------
 #N Geom=AllCheck Guess=TCheck SCRF=Check GenChk RB3LYP/6-31G(d) Freq
 --------------------------------------------------------------------

 Structure from the checkpoint file:  "JID_7584.chk"
 -------------------------------
 CID_119171646_JID_7584_neutraal
 -------------------------------
 Charge =  0 Multiplicity = 1

 SCF Done:  E(RB3LYP) =  -1146.20661030     A.U. after    1 cycles

  Exact polarizability: 182.540   2.866 134.177  -3.759  12.417 126.291
 Approx polarizability: 246.399   8.471 213.758  -3.778  20.997 220.066

                      1                      2                      3
                      A                      A                      A
 Frequencies --     14.1701                19.9334                41.5976
 Red. masses --      6.1991                 6.7510                 5.4335
 Frc consts  --      0.0007                 0.0016                 0.0055
 IR Inten    --      0.1327                 0.2865                 0.3632

                      4                      5                      6
                      A                      A                      A
 Frequencies --     44.0178                55.5006                59.7765
 Red. masses --      5.9474                 5.1603                 6.4661
 Frc consts  --      0.0068                 0.0094                 0.0136
 IR Inten    --      1.2431                 1.3262                 0.7535

                      7                      8                      9
                      A                      A                      A
 Frequencies --     75.7055                79.3854               149.5737
 Red. masses --      6.1530                 7.1644                 3.4987
 Frc consts  --      0.0208                 0.0266                 0.0461
 IR Inten    --      0.7995                 0.8243                 1.4957

                     10                     11                     12
                      A                      A                      A
 Frequencies --    160.9776               228.8718               252.8506
 Red. masses --      4.1590                 3.3614                 2.5132
 Frc consts  --      0.0635                 0.1037                 0.0947
 IR Inten    --      0.5918                 1.6360                 0.6551

                     13                     14                     15
                      A                      A                      A
 Frequencies --    263.0255               290.3334               317.7455
 Red. masses --      3.3536                 4.1066                 2.2074
 Frc consts  --      0.1367                 0.2039                 0.1313
 IR Inten    --      5.6773                 0.0902                 1.0293

                     16                     17                     18
                      A                      A                      A
 Frequencies --    335.7655               393.8927               419.3883
 Red. masses --      2.5795                 2.3635                 2.6965
 Frc consts  --      0.1713                 0.2161                 0.2794
 IR Inten    --      0.6145                 0.6995                 4.5873

                     19                     20                     21
                      A                      A                      A
 Frequencies --    473.8032               497.6649               507.6994
 Red. masses --      2.6992                 1.7404                 4.2342
 Frc consts  --      0.3570                 0.2540                 0.6430
 IR Inten    --      6.3776                51.6346                 2.1662

                     22                     23                     24
                      A                      A                      A
 Frequencies --    521.9192               561.5610               574.8551
 Red. masses --      2.3934                 3.6949                 3.4151
 Frc consts  --      0.3841                 0.6865                 0.6649
 IR Inten    --     19.1834                 1.0477                 2.7292

                     25                     26                     27
                      A                      A                      A
 Frequencies --    590.6761               609.8639               642.2379
 Red. masses --      3.1344                 3.4260                 1.6521
 Frc consts  --      0.6443                 0.7508                 0.4015
 IR Inten    --     62.5600                 8.3578               125.5859

                     28                     29                     30
                      A                      A                      A
 Frequencies --    649.5837               678.5620               699.9514
 Red. masses --      1.7600                 3.0472                 1.2656
 Frc consts  --      0.4376                 0.8267                 0.3653
 IR Inten    --     40.3893                11.5056                53.2007

                     31                     32                     33
                      A                      A                      A
 Frequencies --    719.7866               736.9852               751.2837
 Red. masses --      2.1328                 2.3629                 4.0855
 Frc consts  --      0.6511                 0.7562                 1.3586
 IR Inten    --     71.6476                 9.9990                 2.0902

                     34                     35                     36
                      A                      A                      A
 Frequencies --    792.5544               813.7622               836.2757
 Red. masses --      2.1344                 3.1352                 1.3632
 Frc consts  --      0.7899                 1.2232                 0.5617
 IR Inten    --      3.6903                 4.8629                 6.8168

                     37                     38                     39
                      A                      A                      A
 Frequencies --    861.8959               868.9142               894.7062
 Red. masses --      3.9193                 4.7059                 2.1886
 Frc consts  --      1.7154                 2.0934                 1.0322
 IR Inten    --     12.8990                 5.7008                 4.2165

                     40                     41                     42
                      A                      A                      A
 Frequencies --    906.1997               908.7840               976.5191
 Red. masses --      1.3220                 2.1199                 2.1581
 Frc consts  --      0.6396                 1.0316                 1.2125
 IR Inten    --      0.5589                 2.9219                 8.1925

                     43                     44                     45
                      A                      A                      A
 Frequencies --    998.0631              1010.1342              1045.9085
 Red. masses --      2.0870                 1.8689                 1.7222
 Frc consts  --      1.2249                 1.1236                 1.1100
 IR Inten    --      0.7150                 8.3476                 1.4982

                     46                     47                     48
                      A                      A                      A
 Frequencies --   1068.0297              1094.9822              1114.1515
 Red. masses --      1.6485                 1.8146                 1.2976
 Frc consts  --      1.1079                 1.2819                 0.9490
 IR Inten    --      1.5130                 2.6350                 4.8374

                     49                     50                     51
                      A                      A                      A
 Frequencies --   1126.4598              1138.6426              1155.0089
 Red. masses --      2.7576                 2.0675                 1.8835
 Frc consts  --      2.0616                 1.5793                 1.4804
 IR Inten    --     10.2808                64.7367                 4.7403

                     52                     53                     54
                      A                      A                      A
 Frequencies --   1187.4131              1198.1428              1210.0132
 Red. masses --      1.3553                 2.3992                 1.4681
 Frc consts  --      1.1259                 2.0293                 1.2665
 IR Inten    --     13.6933               101.0577                51.6694

                     55                     56                     57
                      A                      A                      A
 Frequencies --   1246.1041              1271.2612              1283.0904
 Red. masses --      1.3449                 1.5209                 1.3452
 Frc consts  --      1.2305                 1.4482                 1.3048
 IR Inten    --      2.1251                39.3767                18.6170

                     58                     59                     60
                      A                      A                      A
 Frequencies --   1298.3607              1321.9581              1341.0071
 Red. masses --      1.2834                 1.5186                 1.1542
 Frc consts  --      1.2747                 1.5636                 1.2229
 IR Inten    --      8.5253                92.4284                 7.1104

                     61                     62                     63
                      A                      A                      A
 Frequencies --   1373.6819              1379.7799              1386.3393
 Red. masses --      1.5356                 1.6078                 1.4589
 Frc consts  --      1.7072                 1.8034                 1.6520
 IR Inten    --     13.9460                12.9204                10.6278

                     64                     65                     66
                      A                      A                      A
 Frequencies --   1398.7920              1405.8136              1414.6441
 Red. masses --      1.8139                 1.9934                 1.4420
 Frc consts  --      2.0911                 2.3212                 1.7002
 IR Inten    --     20.7415                 1.6790                10.1504

                     67                     68                     69
                      A                      A                      A
 Frequencies --   1420.3271              1445.6636              1488.7759
 Red. masses --      1.4330                 1.5992                 1.5489
 Frc consts  --      1.7032                 1.9692                 2.0228
 IR Inten    --      5.8540                46.6731                37.5078

                     70                     71                     72
                      A                      A                      A
 Frequencies --   1493.8787              1501.8921              1505.1692
 Red. masses --      1.1570                 5.5247                 1.0826
 Frc consts  --      1.5213                 7.3424                 1.4451
 IR Inten    --     40.0750                 7.4355                 2.1513

                     73                     74                     75
                      A                      A                      A
 Frequencies --   1511.0405              1521.0225              1522.7676
 Red. masses --      1.1230                 1.0820                 1.0884
 Frc consts  --      1.5108                 1.4749                 1.4871
 IR Inten    --      8.4159                10.6775                10.5961

                     76                     77                     78
                      A                      A                      A
 Frequencies --   1530.7303              1603.7707              1795.2742
 Red. masses --      1.1052                 5.2684                 8.2870
 Frc consts  --      1.5258                 7.9838                15.7366
 IR Inten    --      3.3909                 1.2299               278.5114

                     79                     80                     81
                      A                      A                      A
 Frequencies --   1847.0570              3038.8258              3046.4643
 Red. masses --      9.8350                 1.0704                 1.0623
 Frc consts  --     19.7690                 5.8239                 5.8087
 IR Inten    --    224.0764                16.9986                23.1964

                     82                     83                     84
                      A                      A                      A
 Frequencies --   3055.4472              3059.2759              3065.2130
 Red. masses --      1.0644                 1.0657                 1.0658
 Frc consts  --      5.8545                 5.8763                 5.9002
 IR Inten    --     29.6795                13.1905                 5.9939

                     85                     86                     87
                      A                      A                      A
 Frequencies --   3082.7787              3084.6144              3097.9601
 Red. masses --      1.0956                 1.0654                 1.0991
 Frc consts  --      6.1344                 5.9728                 6.2147
 IR Inten    --     54.3992                 9.1602                37.9553

                     88                     89                     90
                      A                      A                      A
 Frequencies --   3100.9131              3112.1683              3120.9984
 Red. masses --      1.0972                 1.0986                 1.0945
 Frc consts  --      6.2163                 6.2691                 6.2816
 IR Inten    --      7.4329                35.1363                30.7923

                     91                     92                     93
                      A                      A                      A
 Frequencies --   3150.9677              3206.3130              3224.7142
 Red. masses --      1.1002                 1.0895                 1.0942
 Frc consts  --      6.4358                 6.5991                 6.7037
 IR Inten    --      6.4220                 8.8951                10.5528

                     94                     95                     96
                      A                      A                      A
 Frequencies --   3272.0478              3602.8798              3687.0157
 Red. masses --      1.0969                 1.0765                 1.0642
 Frc consts  --      6.9191                 8.2328                 8.5234
 IR Inten    --      1.8261                27.3509                47.5856

 - Thermochemistry -
 -------------------
 Temperature   298.150 Kelvin.  Pressure   1.00000 Atm.
 Atom     1 has atomic number  6 and mass  12.00000

 Molecular mass:   255.09292 amu.
 Principal axes and moments of inertia in atomic units:
                           1         2         3
     Eigenvalues --  2319.008988574.310009671.88734
           X            0.99996  -0.00097  -0.00878
           Y            0.00121   0.99963   0.02717
           Z            0.00875  -0.02718   0.99959
 This molecule is an asymmetric top.
 Rotational symmetry number  1.
 Warning -- assumption of classical behavior for rotation
           may cause significant error
 Rotational temperatures (Kelvin)      0.03735     0.01010     0.00896
 Rotational constants (GHZ):           0.77824     0.21048     0.18660
 Zero-point vibrational energy     741339.6 (Joules/Mol)
                                  177.18442 (Kcal/Mol)
 Warning -- explicit consideration of  26 degrees of freedom as
           vibrations may cause significant error
 Vibrational temperatures:     20.39    28.68    59.85    63.33    79.85
          (Kelvin)             86.01   108.92   114.22   215.20   231.61
                              329.30   363.80   378.44   417.73   457.16
                              483.09   566.72   603.41   681.70   716.03
                              730.47   750.93   807.96   827.09   849.85
                              877.46   924.04   934.61   976.30  1007.07
                             1035.61  1060.36  1080.93  1140.31  1170.82
                             1203.21  1240.08  1250.17  1287.28  1303.82
                             1307.54  1404.99  1435.99  1453.36  1504.83
                             1536.66  1575.44  1603.02  1620.72  1638.25
                             1661.80  1708.42  1723.86  1740.94  1792.87
                             1829.06  1846.08  1868.05  1902.00  1929.41
                             1976.42  1985.20  1994.63  2012.55  2022.65
                             2035.36  2043.53  2079.99  2142.02  2149.36
                             2160.89  2165.60  2174.05  2188.41  2190.92
                             2202.38  2307.47  2583.00  2657.50  4372.19
                             4383.18  4396.11  4401.62  4410.16  4435.43
                             4438.07  4457.27  4461.52  4477.72  4490.42
                             4533.54  4613.17  4639.64  4707.75  5183.74
                             5304.79

 Zero-point correction=                           0.282361 (Hartree/Particle)
 Thermal correction to Energy=                    0.299844
 Thermal correction to Enthalpy=                  0.300788
 Thermal correction to Gibbs Free Energy=         0.232841
 Sum of electronic and zero-point Energies=          -1145.924249
 Sum of electronic and thermal Energies=             -1145.906767
 Sum of electronic and thermal Enthalpies=           -1145.905823
 Sum of electronic and thermal Free Energies=        -1145.973769

                     E (Thermal)             CV                S
                      KCal/Mol        Cal/Mol-Kelvin    Cal/Mol-Kelvin
 Total                  188.155             64.428            143.006
 Electronic               0.000              0.000              0.000
 Translational            0.889              2.981             42.509
 Rotational               0.889              2.981             33.619
 Vibrational            186.377             58.467             66.877
 Vibration     1          0.593              1.986              7.319
 Vibration     2          0.593              1.986              6.641
 Vibration     3          0.594              1.981              5.182
 Vibration     4          0.595              1.980              5.070
 Vibration     5          0.596              1.975              4.611
 Vibration     6          0.597              1.973              4.465
 Vibration     7          0.599              1.965              3.999
 Vibration     8          0.600              1.963              3.906
 Vibration     9          0.618              1.903              2.678
 Vibration    10          0.622              1.890              2.538
 Vibration    11          0.652              1.797              1.888
 Vibration    12          0.664              1.758              1.711
 Vibration    13          0.670              1.741              1.642
 Vibration    14          0.686              1.692              1.472
 Vibration    15          0.704              1.640              1.322
 Vibration    16          0.717              1.604              1.232
 Vibration    17          0.761              1.483              0.985
 Vibration    18          0.782              1.428              0.894
 Vibration    19          0.831              1.308              0.727
 Vibration    20          0.853              1.255              0.664
 Vibration    21          0.863              1.233              0.639
 Vibration    22          0.877              1.201              0.606
 Vibration    23          0.917              1.114              0.521
 Vibration    24          0.931              1.086              0.495
 Vibration    25          0.948              1.052              0.466
 Vibration    26          0.969              1.011              0.433

 Optimization completed.
    -- Stationary point found.
 Normal termination of Gaussian 16 at Sun Dec 13 16:46:01 2020.

 ----------------------------------------------------------------------
 # B3LYP/6-311++G(d,p) empiricaldispersion=gd3bj scf=xqc pop=npa geom=c
 heck
 ----------------------------------------------------------------------

 ---------------------------------------
 CID_119171646_JID_7584_Energie_neutraal
 ---------------------------------------
 Structure from the checkpoint file:  "JID_7584.chk"
 Charge =  0 Multiplicity = 1

 SCF Done:  E(RB3LYP) =  -1146.45922052     A.U. after   16 cycles
 Normal termination of Gaussian 16 at Sun Dec 13 16:53:05 2020.

 ----------------------------------------------------------------------
 # B3LYP/6-311++G(d,p) empiricaldispersion=gd3bj scf=xqc pop=npa geom=c
 heck
 ----------------------------------------------------------------------

 -------------------------------------
 CID_119171646_JID_7584_Energie_kation
 -------------------------------------
 Structure from the checkpoint file:  "JID_7584.chk"
 Charge =  1 Multiplicity = 2

 SCF Done:  E(UB3LYP) =  -1146.16102828     A.U. after   33 cycles
 SCF Done:  E(UB3LYP) =  -1146.16102828     a.u. after    1 cycles
 Normal termination of Gaussian 16 at Sun Dec 13 17:14:22 2020.
 Gaussian 16:  ES64L-G16RevA.03 25-Dec-2016

 ----------------------------------------------------------------------
 # B3LYP/6-311++G(d,p) empiricaldispersion=gd3bj scf=xqc pop=npa geom=c
 heck
 ----------------------------------------------------------------------

 ------------------------------------
 CID_119171646_JID_7584_Energie_anion
 ------------------------------------
 Structure from the checkpoint file:  "JID_7584.chk"
 Charge = -1 Multiplicity = 2

                         Standard orientation:
 ---------------------------------------------------------------------
 Center     Atomic      Atomic             Coordinates (Angstroms)
 Number     Number       Type             X           Y           Z
 ---------------------------------------------------------------------
      1          6           0       -4.815134    0.641577    0.682835
      2          6           0       -4.857004   -0.297732   -0.309262
      3         16           0       -3.293804   -0.517885   -1.032171
      4          6           0       -2.567587    0.676174    0.017194
      5          6           0       -3.510414    1.194129    0.866813
      6          6           0       -1.097583    0.983525   -0.039376
      7          6           0       -0.284864    0.276327    1.065101
      8          6           0       -0.299528   -1.257278    1.017793
      9          6           0        0.185321   -1.886855   -0.299310
     10          6           0        1.503819   -1.319113   -0.837313
     11          6           0        2.663500   -1.491058    0.136582
     12          8           0        2.680794   -2.354388    1.002211
     13          7           0        3.744701   -0.648784   -0.026770
     14          6           0        3.785049    0.537578   -0.855525
     15          6           0        2.929790    1.694694   -0.342935
     16          8           0        2.158801    2.339444   -1.016674
     17          8           0        3.132192    1.917217    0.975513
     18          1           0       -5.683544    0.936927    1.261672
     19          1           0       -5.706101   -0.865816   -0.663479
     20          1           0       -3.276441    1.955586    1.604146
     21          1           0       -0.696450    0.725427   -1.025361
     22          1           0       -0.960222    2.066902    0.061691
     23          1           0        0.749754    0.638451    1.019188
     24          1           0       -0.673810    0.597482    2.039686
     25          1           0        0.328593   -1.630763    1.832613
     26          1           0       -1.318149   -1.613365    1.213056
     27          1           0        0.300392   -2.964149   -0.144598
     28          1           0       -0.574842   -1.759862   -1.079204
     29          1           0        1.778978   -1.841394   -1.764977
     30          1           0        1.379099   -0.268723   -1.114232
     31          1           0        4.429802   -0.732121    0.713823
     32          1           0        4.823745    0.881179   -0.907107
     33          1           0        3.461744    0.321574   -1.875195
     34          1           0        2.538918    2.650335    1.226424
 ---------------------------------------------------------------------

 SCF Done:  E(UB3LYP) =  -1146.45505343     A.U. after   33 cycles
 SCF Done:  E(UB3LYP) =  -1146.45505343     a.u. after    1 cycles

 The electronic state is 2-A.
 Alpha  occ. eigenvalues --  -88.78560 -19.07085 -19.02011 -18.99545 -14.24291
 Alpha  occ. eigenvalues --  -10.20683 -10.18019 -10.12736 -10.11268 -10.10928
 Alpha  occ. eigenvalues --  -10.09232 -10.08628 -10.08540 -10.08307 -10.07621
 Alpha  occ. eigenvalues --  -10.07231 -10.06663  -7.87195  -5.83475  -5.83113
 Alpha  occ. eigenvalues --   -5.82808  -1.01310  -0.94665  -0.92559  -0.83187
 Alpha  occ. eigenvalues --   -0.79403  -0.72144  -0.68539  -0.64986  -0.64662
 Alpha  occ. eigenvalues --   -0.63705  -0.59841  -0.55093  -0.52534  -0.49545
 Alpha  occ. eigenvalues --   -0.47671  -0.45975  -0.44142  -0.42448  -0.41312
 Alpha  occ. eigenvalues --   -0.40926  -0.39575  -0.39016  -0.37987  -0.36226
 Alpha  occ. eigenvalues --   -0.34751  -0.34256  -0.32483  -0.32240  -0.31802
 Alpha  occ. eigenvalues --   -0.31318  -0.30529  -0.30109  -0.29402  -0.28168
 Alpha  occ. eigenvalues --   -0.27825  -0.27334  -0.26669  -0.25590  -0.23516
 Alpha  occ. eigenvalues --   -0.23380  -0.23025  -0.22424  -0.20273  -0.16831
 Alpha  occ. eigenvalues --   -0.16608  -0.15873  -0.14482   0.03899
 Alpha virt. eigenvalues --    0.05775   0.06106   0.06802   0.07362   0.07710
 Alpha virt. eigenvalues --    0.08631   0.09135   0.09348   0.09816   0.10080
 Alpha virt. eigenvalues --    0.10384   0.10824   0.11280   0.11569   0.12372

  Beta  occ. eigenvalues --  -88.78552 -19.07017 -19.01959 -18.99543 -14.24268
  Beta  occ. eigenvalues --  -10.20617 -10.18019 -10.12688 -10.11213 -10.10876
  Beta  occ. eigenvalues --  -10.09231 -10.08610 -10.08539 -10.08295 -10.07620
  Beta  occ. eigenvalues --  -10.07209 -10.06662  -7.87188  -5.83472  -5.83110
  Beta  occ. eigenvalues --   -5.82782  -1.01176  -0.94658  -0.92445  -0.83145
  Beta  occ. eigenvalues --   -0.79342  -0.72120  -0.68492  -0.64863  -0.64616
  Beta  occ. eigenvalues --   -0.63636  -0.59798  -0.55057  -0.52379  -0.49493
  Beta  occ. eigenvalues --   -0.47609  -0.45919  -0.44084  -0.42351  -0.41275
  Beta  occ. eigenvalues --   -0.40845  -0.39515  -0.38926  -0.37937  -0.36181
  Beta  occ. eigenvalues --   -0.34624  -0.34210  -0.32439  -0.32209  -0.31741
  Beta  occ. eigenvalues --   -0.31272  -0.30478  -0.30022  -0.29310  -0.28133
  Beta  occ. eigenvalues --   -0.27773  -0.27294  -0.26645  -0.25542  -0.23493
  Beta  occ. eigenvalues --   -0.23277  -0.22970  -0.22361  -0.20214  -0.16709
  Beta  occ. eigenvalues --   -0.16591  -0.15823  -0.14215
  Beta virt. eigenvalues --    0.05816   0.06433   0.06948   0.07360   0.07820
  Beta virt. eigenvalues --    0.08134   0.08900   0.09484   0.09825   0.09923
  Beta virt. eigenvalues --    0.10443   0.10736   0.10896   0.11260   0.11655

 Mulliken charges and spin densities:
               1          2
     1  C   -0.232216  -0.276400
     2  C   -0.186771   0.171312
     3  S   -0.181912   0.035981
     4  C   -0.437860   0.924038
     5  C   -0.193008   0.186607
     6  C    0.176440  -1.124779
     7  C    0.351256  -0.063885
     8  C   -0.515448  -0.158273
     9  C   -0.051082  -0.435743
    10  C    0.392180  -0.220170
    11  C   -0.745112   0.433039
    12  O   -0.312151   0.001129
    13  N   -0.015865  -0.066399
    14  C    0.983135  -1.462320
    15  C    0.206190  -0.303339
    16  O   -0.215117   0.062396
    17  O   -0.100672   0.033368
    18  H    0.081353   0.049340
    19  H    0.175587   0.052140
    20  H   -0.145259   0.301559
    21  H   -0.065597   0.186881
    22  H   -0.000786   0.214811
    23  H    0.623329  -0.414314
    24  H   -0.020139   0.191952
    25  H    0.152367   0.038680
    26  H    0.172499  -0.049061
    27  H    0.208124  -0.019902
    28  H    0.098552   0.011115
    29  H   -0.145411   0.356378
    30  H    0.654548  -0.454447
    31  H    0.036289   0.277344
    32  H   -1.243833   1.479677
    33  H    0.019297   0.202953
    34  H   -0.522908   0.838332
 Sum of Mulliken charges =  -1.00000   1.00000

 Dipole moment (field-independent basis, Debye):
    X=             -9.5239    Y=             -4.0656    Z=             -1.3344  Tot=             10.4410
 Quadrupole moment (field-independent basis, Debye-Ang):
   XX=           -198.1433   YY=           -157.6425   ZZ=           -137.7667
   XY=             -5.5754   XZ=             -1.9334   YZ=              2.3613

 Summary of Natural Population Analysis:

                                       Natural Population
                Natural  -----------------------------------------------
    Atom  No    Charge         Core      Valence    Rydberg      Total
 -----------------------------------------------------------------------
      C    1   -0.12728      0.99954     2.11814    0.00960     3.12728
      C    2   -0.19790      0.99955     2.18704    0.01131     3.19790
      S    3    0.20242      4.99940     2.77772    0.02046     7.79758
      C    4   -0.07932      0.99950     2.06673    0.01308     3.07932
      C    5   -0.13692      0.99945     2.12679    0.01067     3.13692
      C    6   -0.21179      0.99957     2.20144    0.01077     3.21179
      C    7   -0.18749      0.99962     2.17907    0.00880     3.18749
      C    8   -0.19599      0.99962     2.18936    0.00700     3.19599
      C    9   -0.18992      0.99963     2.18218    0.00811     3.18992
      C   10   -0.24300      0.99958     2.23614    0.00728     3.24300
      C   11    0.34850      0.99967     1.62867    0.02316     2.65150
      O   12   -0.32235      0.99988     3.31688    0.00559     4.32235
      N   13   -0.31742      0.99968     2.80604    0.01171     3.81742
      C   14   -0.13783      0.99957     2.12555    0.01271     3.13783
      C   15    0.40361      0.99973     1.57149    0.02516     2.59639
      O   16   -0.30197      0.99987     3.29585    0.00625     4.30197
      O   17   -0.34329      0.99987     3.33622    0.00719     4.34329
      H   18    0.10357      0.00000     0.39562    0.00081     0.39643
      H   19    0.10626      0.00000     0.39290    0.00085     0.39374
      H   20    0.10760      0.00000     0.39142    0.00098     0.39240
      H   21    0.10400      0.00000     0.39482    0.00118     0.39600
      H   22    0.11436      0.00000     0.38444    0.00121     0.38564
      H   23    0.09955      0.00000     0.39822    0.00223     0.40045
      H   24    0.09849      0.00000     0.40042    0.00109     0.40151
      H   25    0.10759      0.00000     0.39139    0.00103     0.39241
      H   26    0.09791      0.00000     0.40098    0.00111     0.40209
      H   27    0.10418      0.00000     0.39479    0.00103     0.39582
      H   28    0.09583      0.00000     0.40288    0.00129     0.40417
      H   29    0.11288      0.00000     0.38620    0.00092     0.38712
      H   30    0.10856      0.00000     0.38962    0.00183     0.39144
      H   31    0.19896      0.00000     0.29838    0.00266     0.30104
      H   32    0.12288      0.00000     0.36894    0.00818     0.37712
      H   33    0.10740      0.00000     0.39136    0.00124     0.39260
      H   34    0.24791      0.00000     0.23312    0.01897     0.25209
 =======================================================================
   * Total *   -0.00000     20.99373    46.76082    0.24545    68.00000

 Normal termination of Gaussian 16 at Sun Dec 13 17:34:37 2020.
