 Gaussian 16, Revision A.03,

 -----------------------------------------------------------
 # opt freq B3LYP/6-31G(d) empiricaldispersion=gd3bj scf=xqc
 -----------------------------------------------------------

 -------------------------------
 CID_114482050_JID_7673_neutraal
 -------------------------------
 Symbolic Z-matrix:
 Charge =  0 Multiplicity = 1

 SCF Done:  E(RB3LYP) =  -1088.03476311     A.U. after   15 cycles
 SCF Done:  E(RB3LYP) =  -1088.03973742     A.U. after   13 cycles
 SCF Done:  E(RB3LYP) =  -1088.04016313     A.U. after   12 cycles
 SCF Done:  E(RB3LYP) =  -1088.04030394     A.U. after   13 cycles
 SCF Done:  E(RB3LYP) =  -1088.04046075     A.U. after   12 cycles
 SCF Done:  E(RB3LYP) =  -1088.04049460     A.U. after   10 cycles
 SCF Done:  E(RB3LYP) =  -1088.04050733     A.U. after   10 cycles
 SCF Done:  E(RB3LYP) =  -1088.04051219     A.U. after    9 cycles
 SCF Done:  E(RB3LYP) =  -1088.04051540     A.U. after    9 cycles
 SCF Done:  E(RB3LYP) =  -1088.04051568     A.U. after    8 cycles
 SCF Done:  E(RB3LYP) =  -1088.04051578     A.U. after    7 cycles
 Optimization completed.
    -- Stationary point found.
 Normal termination of Gaussian 16 at Sun Dec 13 20:07:33 2020.

 --------------------------------------------------------------------
 #N Geom=AllCheck Guess=TCheck SCRF=Check GenChk RB3LYP/6-31G(d) Freq
 --------------------------------------------------------------------

 Structure from the checkpoint file:  "JID_7673.chk"
 -------------------------------
 CID_114482050_JID_7673_neutraal
 -------------------------------
 Charge =  0 Multiplicity = 1

 SCF Done:  E(RB3LYP) =  -1088.04051578     A.U. after    1 cycles

  Exact polarizability: 215.502  11.735 180.524 -14.602   3.554 112.791
 Approx polarizability: 284.242  21.297 320.956 -35.505  13.369 181.411

                      1                      2                      3
                      A                      A                      A
 Frequencies --     25.7238                34.2964                51.6204
 Red. masses --      4.7498                 5.1422                 5.2641
 Frc consts  --      0.0019                 0.0036                 0.0083
 IR Inten    --      3.2602                 1.4106                 2.5909

                      4                      5                      6
                      A                      A                      A
 Frequencies --     61.0464                91.5645               145.0185
 Red. masses --      4.9038                 4.6937                 2.9841
 Frc consts  --      0.0108                 0.0232                 0.0370
 IR Inten    --      3.0380                 0.4592                 3.1996

                      7                      8                      9
                      A                      A                      A
 Frequencies --    156.1101               160.4077               170.4104
 Red. masses --      2.3704                 1.4443                 2.2491
 Frc consts  --      0.0340                 0.0219                 0.0385
 IR Inten    --      5.3022                 3.6276                 0.5562

                     10                     11                     12
                      A                      A                      A
 Frequencies --    193.3680               215.3812               245.5865
 Red. masses --      2.7451                 4.1246                 3.8779
 Frc consts  --      0.0605                 0.1127                 0.1378
 IR Inten    --      2.0094                 0.7587                10.1425

                     13                     14                     15
                      A                      A                      A
 Frequencies --    265.7871               338.5975               378.3073
 Red. masses --      6.1080                 3.7387                 1.9699
 Frc consts  --      0.2542                 0.2525                 0.1661
 IR Inten    --      0.5521                 8.1596                55.4257

                     16                     17                     18
                      A                      A                      A
 Frequencies --    386.5480               395.8165               447.4071
 Red. masses --      2.1806                 1.6985                 3.7696
 Frc consts  --      0.1920                 0.1568                 0.4446
 IR Inten    --     41.2495               105.3440                 1.7189

                     19                     20                     21
                      A                      A                      A
 Frequencies --    460.1989               496.4082               518.6865
 Red. masses --      3.0383                 4.4649                 3.9098
 Frc consts  --      0.3791                 0.6482                 0.6197
 IR Inten    --      2.4956                 1.8625                11.0734

                     22                     23                     24
                      A                      A                      A
 Frequencies --    548.2113               563.8474               572.9107
 Red. masses --      3.4105                 3.6482                 3.1335
 Frc consts  --      0.6039                 0.6834                 0.6060
 IR Inten    --      2.3392                 4.5478                 3.2837

                     25                     26                     27
                      A                      A                      A
 Frequencies --    618.8580               633.9862               657.5699
 Red. masses --      1.2004                 3.1714                 5.3672
 Frc consts  --      0.2709                 0.7510                 1.3674
 IR Inten    --     16.4538                 9.8425                 4.2108

                     28                     29                     30
                      A                      A                      A
 Frequencies --    676.1111               697.4006               744.6201
 Red. masses --      5.2154                 4.4616                 3.5403
 Frc consts  --      1.4047                 1.2785                 1.1565
 IR Inten    --      7.7193                 5.7960                 1.2484

                     31                     32                     33
                      A                      A                      A
 Frequencies --    767.8057               806.4734               862.7080
 Red. masses --      3.0225                 4.1203                 3.1197
 Frc consts  --      1.0498                 1.5789                 1.3680
 IR Inten    --      1.4872                 7.8645                30.9049

                     34                     35                     36
                      A                      A                      A
 Frequencies --    869.5478               885.8377               910.7879
 Red. masses --      2.1952                 1.5114                 1.3563
 Frc consts  --      0.9779                 0.6988                 0.6629
 IR Inten    --     18.6933                10.9346                 9.0352

                     37                     38                     39
                      A                      A                      A
 Frequencies --    914.6828               934.9394               959.8700
 Red. masses --      1.6020                 2.0719                 2.0715
 Frc consts  --      0.7897                 1.0671                 1.1245
 IR Inten    --      5.0132                 1.8758                 7.4218

                     40                     41                     42
                      A                      A                      A
 Frequencies --    979.8265              1006.6964              1031.9644
 Red. masses --      2.4868                 1.3283                 1.5305
 Frc consts  --      1.4067                 0.7931                 0.9603
 IR Inten    --      9.3525                 3.0914                 1.3582

                     43                     44                     45
                      A                      A                      A
 Frequencies --   1037.6089              1064.1478              1074.7433
 Red. masses --      1.9459                 3.3547                 1.5158
 Frc consts  --      1.2344                 2.2383                 1.0316
 IR Inten    --      2.7672                 2.5133                 3.1519

                     46                     47                     48
                      A                      A                      A
 Frequencies --   1106.0956              1141.1053              1173.1885
 Red. masses --      1.7006                 2.0959                 1.8690
 Frc consts  --      1.2258                 1.6079                 1.5156
 IR Inten    --      0.0931                13.9945                11.6752

                     49                     50                     51
                      A                      A                      A
 Frequencies --   1193.6705              1215.4644              1217.7674
 Red. masses --      1.3958                 2.1086                 1.5828
 Frc consts  --      1.1718                 1.8354                 1.3829
 IR Inten    --      5.8713                 4.0533                 0.6480

                     52                     53                     54
                      A                      A                      A
 Frequencies --   1232.9010              1256.9546              1260.9648
 Red. masses --      1.4625                 1.3584                 2.3343
 Frc consts  --      1.3098                 1.2645                 2.1869
 IR Inten    --      8.0584                15.1141                 9.4325

                     55                     56                     57
                      A                      A                      A
 Frequencies --   1293.1116              1324.7639              1325.6407
 Red. masses --      2.1319                 3.1936                 1.5898
 Frc consts  --      2.1003                 3.3023                 1.6461
 IR Inten    --    114.8134                79.5491                28.3575

                     58                     59                     60
                      A                      A                      A
 Frequencies --   1331.2705              1352.7211              1361.3088
 Red. masses --      1.4560                 2.1757                 1.4980
 Frc consts  --      1.5204                 2.3457                 1.6356
 IR Inten    --     17.2992                86.0602                32.1790

                     61                     62                     63
                      A                      A                      A
 Frequencies --   1378.2956              1391.9725              1401.1155
 Red. masses --      2.2357                 4.0845                 1.4075
 Frc consts  --      2.5023                 4.6628                 1.6279
 IR Inten    --     23.2822               111.5457                19.5029

                     64                     65                     66
                      A                      A                      A
 Frequencies --   1445.7147              1453.4385              1463.6062
 Red. masses --      1.2897                 3.1443                 2.2449
 Frc consts  --      1.5882                 3.9135                 2.8333
 IR Inten    --      4.2306                49.5638                91.8484

                     67                     68                     69
                      A                      A                      A
 Frequencies --   1498.5319              1510.2223              1520.3296
 Red. masses --      1.0885                 1.1000                 1.0552
 Frc consts  --      1.4402                 1.4782                 1.4370
 IR Inten    --      3.8925                14.4419                 1.4266

                     70                     71                     72
                      A                      A                      A
 Frequencies --   1526.9032              1528.2212              1553.6841
 Red. masses --      1.2050                 1.1086                 2.0840
 Frc consts  --      1.6553                 1.5254                 2.9640
 IR Inten    --      9.5636                 6.6909                 4.4572

                     73                     74                     75
                      A                      A                      A
 Frequencies --   1561.7401              1624.7733              1657.7658
 Red. masses --      1.1076                 5.8158                 1.3299
 Frc consts  --      1.5917                 9.0458                 2.1534
 IR Inten    --     10.9083                 3.0287               190.3482

                     76                     77                     78
                      A                      A                      A
 Frequencies --   1665.1025              1800.2243              3018.8361
 Red. masses --      4.8353                11.4467                 1.0673
 Frc consts  --      7.8987                21.8566                 5.7310
 IR Inten    --      2.9011               309.6735                39.5383

                     79                     80                     81
                      A                      A                      A
 Frequencies --   3047.9558              3064.5193              3070.6900
 Red. masses --      1.0381                 1.0703                 1.0867
 Frc consts  --      5.6820                 5.9223                 6.0371
 IR Inten    --     21.7547                14.0215                11.2724

                     82                     83                     84
                      A                      A                      A
 Frequencies --   3084.6803              3087.3511              3100.9169
 Red. masses --      1.0712                 1.0602                 1.1005
 Frc consts  --      6.0055                 5.9541                 6.2348
 IR Inten    --     39.2212                44.7731                16.7292

                     85                     86                     87
                      A                      A                      A
 Frequencies --   3128.6245              3129.9324              3135.7118
 Red. masses --      1.1007                 1.0986                 1.1049
 Frc consts  --      6.3477                 6.3411                 6.4007
 IR Inten    --     16.1385                14.4595                10.6221

                     88                     89                     90
                      A                      A                      A
 Frequencies --   3138.9601              3184.7644              3203.8380
 Red. masses --      1.1011                 1.0892                 1.0903
 Frc consts  --      6.3922                 6.5090                 6.5937
 IR Inten    --     21.4166                12.0250                 0.2950

                     91                     92                     93
                      A                      A                      A
 Frequencies --   3230.2572              3567.3714              3692.3161
 Red. masses --      1.0930                 1.0449                 1.1043
 Frc consts  --      6.7195                 7.8349                 8.8705
 IR Inten    --      0.5965                46.2115                35.1775

 - Thermochemistry -
 -------------------
 Temperature   298.150 Kelvin.  Pressure   1.00000 Atm.
 Atom     1 has atomic number  6 and mass  12.00000

 Molecular mass:   248.09834 amu.
 Principal axes and moments of inertia in atomic units:
                           1         2         3
     Eigenvalues --  2315.656758490.343389453.28914
           X            0.99987  -0.01014   0.01281
           Y            0.01007   0.99994   0.00520
           Z           -0.01286  -0.00507   0.99990
 This molecule is an asymmetric top.
 Rotational symmetry number  1.
 Warning -- assumption of classical behavior for rotation
           may cause significant error
 Rotational temperatures (Kelvin)      0.03740     0.01020     0.00916
 Rotational constants (GHZ):           0.77936     0.21256     0.19091
 Zero-point vibrational energy     722034.5 (Joules/Mol)
                                  172.57039 (Kcal/Mol)
 Warning -- explicit consideration of  25 degrees of freedom as
           vibrations may cause significant error
 Vibrational temperatures:     37.01    49.34    74.27    87.83   131.74
          (Kelvin)            208.65   224.61   230.79   245.18   278.21
                              309.89   353.34   382.41   487.17   544.30
                              556.16   569.49   643.72   662.12   714.22
                              746.27   788.75   811.25   824.29   890.40
                              912.16   946.10   972.77  1003.40  1071.34
                             1104.70  1160.34  1241.24  1251.09  1274.52
                             1310.42  1316.02  1345.17  1381.04  1409.75
                             1448.41  1484.77  1492.89  1531.07  1546.32
                             1591.42  1641.80  1687.96  1717.43  1748.78
                             1752.10  1773.87  1808.48  1814.25  1860.50
                             1906.04  1907.30  1915.40  1946.26  1958.62
                             1983.06  2002.74  2015.89  2080.06  2091.17
                             2105.80  2156.05  2172.87  2187.42  2196.87
                             2198.77  2235.40  2247.00  2337.69  2385.16
                             2395.71  2590.12  4343.43  4385.33  4409.16
                             4418.04  4438.17  4442.01  4461.53  4501.39
                             4503.27  4511.59  4516.26  4582.17  4609.61
                             4647.62  5132.65  5312.42

 Zero-point correction=                           0.275008 (Hartree/Particle)
 Thermal correction to Energy=                    0.291205
 Thermal correction to Enthalpy=                  0.292150
 Thermal correction to Gibbs Free Energy=         0.229545
 Sum of electronic and zero-point Energies=          -1087.765507
 Sum of electronic and thermal Energies=             -1087.749310
 Sum of electronic and thermal Enthalpies=           -1087.748366
 Sum of electronic and thermal Free Energies=        -1087.810971

                     E (Thermal)             CV                S
                      KCal/Mol        Cal/Mol-Kelvin    Cal/Mol-Kelvin
 Total                  182.734             61.272            131.762
 Electronic               0.000              0.000              0.000
 Translational            0.889              2.981             42.427
 Rotational               0.889              2.981             33.585
 Vibrational            180.957             55.311             55.750
 Vibration     1          0.593              1.985              6.135
 Vibration     2          0.594              1.983              5.564
 Vibration     3          0.596              1.977              4.754
 Vibration     4          0.597              1.973              4.423
 Vibration     5          0.602              1.955              3.626
 Vibration     6          0.616              1.908              2.737
 Vibration     7          0.620              1.896              2.596
 Vibration     8          0.622              1.891              2.545
 Vibration     9          0.626              1.879              2.431
 Vibration    10          0.635              1.849              2.195
 Vibration    11          0.645              1.818              1.998
 Vibration    12          0.660              1.770              1.762
 Vibration    13          0.672              1.736              1.623
 Vibration    14          0.719              1.598              1.219
 Vibration    15          0.749              1.516              1.046
 Vibration    16          0.755              1.499              1.013
 Vibration    17          0.763              1.479              0.978
 Vibration    18          0.807              1.367              0.804
 Vibration    19          0.818              1.338              0.766
 Vibration    20          0.852              1.258              0.667
 Vibration    21          0.874              1.209              0.613
 Vibration    22          0.903              1.144              0.548
 Vibration    23          0.920              1.109              0.516
 Vibration    24          0.929              1.090              0.499
 Vibration    25          0.979              0.992              0.418

                           ! Non-Optimized Parameters !
 Normal termination of Gaussian 16 at Sun Dec 13 20:19:51 2020.

 ----------------------------------------------------------------------
 # B3LYP/6-311++G(d,p) empiricaldispersion=gd3bj scf=xqc pop=npa geom=c
 heck
 ----------------------------------------------------------------------

 ---------------------------------------
 CID_114482050_JID_7673_Energie_neutraal
 ---------------------------------------
 Structure from the checkpoint file:  "JID_7673.chk"
 Charge =  0 Multiplicity = 1

 SCF Done:  E(RB3LYP) =  -1088.25587204     A.U. after   16 cycles
 Normal termination of Gaussian 16 at Sun Dec 13 20:26:20 2020.

 ----------------------------------------------------------------------
 # B3LYP/6-311++G(d,p) empiricaldispersion=gd3bj scf=xqc pop=npa geom=c
 heck
 ----------------------------------------------------------------------

 -------------------------------------
 CID_114482050_JID_7673_Energie_kation
 -------------------------------------
 Structure from the checkpoint file:  "JID_7673.chk"
 Charge =  1 Multiplicity = 2

 SCF Done:  E(UB3LYP) =  -1087.97009330     A.U. after   33 cycles
 SCF Done:  E(UB3LYP) =  -1087.97009412     a.u. after    3 cycles
 Normal termination of Gaussian 16 at Sun Dec 13 21:18:37 2020.
 Gaussian 16:  ES64L-G16RevA.03 25-Dec-2016

 ----------------------------------------------------------------------
 # B3LYP/6-311++G(d,p) empiricaldispersion=gd3bj scf=xqc pop=npa geom=c
 heck
 ----------------------------------------------------------------------

 ------------------------------------
 CID_114482050_JID_7673_Energie_anion
 ------------------------------------
 Structure from the checkpoint file:  "JID_7673.chk"
 Charge = -1 Multiplicity = 2

                         Standard orientation:
 ---------------------------------------------------------------------
 Center     Atomic      Atomic             Coordinates (Angstroms)
 Number     Number       Type             X           Y           Z
 ---------------------------------------------------------------------
      1          6           0        0.090244    3.055883    0.196405
      2          6           0       -0.413501    1.676386   -0.163784
      3          6           0        0.412874    0.715964   -0.774360
      4          6           0       -0.101000   -0.557401   -1.058568
      5          6           0       -1.412320   -0.891385   -0.750265
      6          6           0       -2.255307    0.060903   -0.161920
      7          6           0       -1.738824    1.333476    0.122126
      8          6           0       -3.665377   -0.279238    0.159563
      9         16           0       -4.165730   -1.807091    0.602308
     10          7           0       -4.531151    0.760465    0.101286
     11          6           0        1.875184    0.976504   -1.085331
     12          7           0        2.759480    0.264801   -0.174999
     13          6           0        2.819909    0.566650    1.248676
     14          6           0        3.941938   -0.364810    1.750966
     15          6           0        3.897953   -1.547444    0.771316
     16          6           0        3.268942   -0.970533   -0.495032
     17          8           0        3.191285   -1.504586   -1.591955
     18          1           0        0.946887    3.013482    0.879065
     19          1           0        0.410994    3.618817   -0.688349
     20          1           0       -0.694170    3.637131    0.689680
     21          1           0        0.552015   -1.289463   -1.525238
     22          1           0       -1.803096   -1.879885   -0.963587
     23          1           0       -2.365236    2.064002    0.627207
     24          1           0       -4.286633    1.610248   -0.388630
     25          1           0       -5.510262    0.571350    0.267888
     26          1           0        2.117689    0.607254   -2.085211
     27          1           0        2.112955    2.043031   -1.046795
     28          1           0        1.856291    0.351665    1.734084
     29          1           0        3.047198    1.626917    1.408699
     30          1           0        3.797271   -0.656053    2.794096
     31          1           0        4.905011    0.150071    1.674602
     32          1           0        3.240881   -2.351704    1.125883
     33          1           0        4.870995   -1.993314    0.552558
 ---------------------------------------------------------------------

 SCF Done:  E(UB3LYP) =  -1088.27300759     A.U. after   26 cycles

 The electronic state is 2-A.
 Alpha  occ. eigenvalues --  -88.62950 -18.99063 -14.24208 -14.19150 -10.17162
 Alpha  occ. eigenvalues --  -10.12192 -10.10167 -10.09655 -10.09552 -10.07840
 Alpha  occ. eigenvalues --  -10.06558 -10.05424 -10.03596 -10.03210 -10.03154
 Alpha  occ. eigenvalues --  -10.03052 -10.02589  -7.71730  -5.68078  -5.67639
 Alpha  occ. eigenvalues --   -5.67306  -0.94171  -0.85335  -0.79428  -0.73317
 Alpha  occ. eigenvalues --   -0.71003  -0.65361  -0.63582  -0.62923  -0.59323
 Alpha  occ. eigenvalues --   -0.57704  -0.55101  -0.52675  -0.48106  -0.46843
 Alpha  occ. eigenvalues --   -0.43980  -0.42040  -0.41677  -0.40145  -0.39697
 Alpha  occ. eigenvalues --   -0.36727  -0.36434  -0.34483  -0.33977  -0.32445
 Alpha  occ. eigenvalues --   -0.31964  -0.31453  -0.30537  -0.30254  -0.28730
 Alpha  occ. eigenvalues --   -0.28370  -0.28039  -0.27437  -0.26730  -0.25044
 Alpha  occ. eigenvalues --   -0.24377  -0.23495  -0.21021  -0.20791  -0.19406
 Alpha  occ. eigenvalues --   -0.16425  -0.14646  -0.12118  -0.11879  -0.08170
 Alpha  occ. eigenvalues --   -0.05589   0.03733
 Alpha virt. eigenvalues --    0.05770   0.07289   0.08287   0.08487   0.09105
 Alpha virt. eigenvalues --    0.09949   0.10278   0.10777   0.11466   0.11882
 Alpha virt. eigenvalues --    0.12068   0.12417   0.12870   0.13058   0.13770

  Beta  occ. eigenvalues --  -88.62887 -18.99045 -14.24170 -14.19016 -10.17152
  Beta  occ. eigenvalues --  -10.12189 -10.10165 -10.09675 -10.09549 -10.07343
  Beta  occ. eigenvalues --  -10.06553 -10.05498 -10.03289 -10.03162 -10.03055
  Beta  occ. eigenvalues --  -10.02920 -10.02492  -7.71674  -5.68057  -5.67432
  Beta  occ. eigenvalues --   -5.67269  -0.94137  -0.85286  -0.78922  -0.73095
  Beta  occ. eigenvalues --   -0.70900  -0.65136  -0.63306  -0.62885  -0.58897
  Beta  occ. eigenvalues --   -0.57435  -0.54828  -0.52648  -0.47601  -0.46708
  Beta  occ. eigenvalues --   -0.43808  -0.41952  -0.41448  -0.40068  -0.39567
  Beta  occ. eigenvalues --   -0.36587  -0.36352  -0.34376  -0.33911  -0.32212
  Beta  occ. eigenvalues --   -0.31877  -0.31384  -0.30520  -0.30172  -0.28647
  Beta  occ. eigenvalues --   -0.28280  -0.27873  -0.27362  -0.26587  -0.24982
  Beta  occ. eigenvalues --   -0.23364  -0.22878  -0.20782  -0.19827  -0.18998
  Beta  occ. eigenvalues --   -0.16346  -0.14553  -0.11335  -0.10654  -0.06959
  Beta  occ. eigenvalues --   -0.05326
  Beta virt. eigenvalues --    0.05693   0.07201   0.08224   0.08380   0.09041
  Beta virt. eigenvalues --    0.09163   0.09987   0.10239   0.10910   0.11398
  Beta virt. eigenvalues --    0.11952   0.12185   0.12420   0.12960   0.13025

 Mulliken charges and spin densities:
               1          2
     1  C   -0.750747   0.043562
     2  C    0.360069  -0.069875
     3  C    1.021580   0.137170
     4  C   -0.416548   0.010080
     5  C   -0.923303   0.134541
     6  C    1.179569  -0.029345
     7  C   -0.722172   0.146647
     8  C   -0.394586   0.202633
     9  S   -0.905565   0.194517
    10  N   -0.197350   0.080746
    11  C   -0.571154   0.077172
    12  N    0.227703  -0.012760
    13  C   -0.163469  -0.068323
    14  C   -0.475910   0.012919
    15  C   -0.243804  -0.084934
    16  C   -0.091887   0.047134
    17  O   -0.350260   0.004828
    18  H    0.119578   0.021761
    19  H    0.146173  -0.000670
    20  H    0.122868   0.008926
    21  H    0.136797   0.006185
    22  H    0.113441   0.012298
    23  H    0.133342  -0.016272
    24  H    0.178741   0.029087
    25  H    0.251215  -0.004657
    26  H    0.189091   0.021898
    27  H    0.146925   0.024329
    28  H    0.192150  -0.009384
    29  H    0.102398   0.030012
    30  H    0.134587   0.022217
    31  H    0.120278   0.016062
    32  H    0.168343  -0.000303
    33  H    0.161907   0.011801
 Sum of Mulliken charges =  -1.00000   1.00000

 Dipole moment (field-independent basis, Debye):
    X=              9.5613    Y=              6.5959    Z=              1.9564  Tot=             11.7794
 Quadrupole moment (field-independent basis, Debye-Ang):
   XX=           -173.4124   YY=           -130.2780   ZZ=           -125.9501
   XY=            -18.2171   XZ=             18.4202   YZ=             -2.3130

 Summary of Natural Population Analysis:

                                       Natural Population
                Natural  -----------------------------------------------
    Atom  No    Charge         Core      Valence    Rydberg      Total
 -----------------------------------------------------------------------
      C    1   -0.29032      0.99964     2.28571    0.00497     3.29032
      C    2   -0.06039      0.99953     2.04686    0.01401     3.06039
      C    3    0.07496      0.99945     1.91455    0.01104     2.92504
      C    4   -0.12781      0.99958     2.11290    0.01533     3.12781
      C    5   -0.05912      0.99953     2.05151    0.00808     3.05912
      C    6   -0.02975      0.99946     2.01867    0.01162     3.02975
      C    7   -0.06974      0.99949     2.06071    0.00954     3.06974
      C    8    0.13456      0.99960     1.84636    0.01947     2.86544
      S    9   -0.13001      4.99956     3.11570    0.01475     8.13001
      N   10   -0.37507      0.99968     2.86441    0.01098     3.87507
      C   11   -0.10768      0.99963     2.09250    0.01555     3.10768
      N   12   -0.24875      0.99963     2.73800    0.01112     3.74875
      C   13   -0.07965      0.99964     2.07181    0.00821     3.07965
      C   14   -0.19466      0.99965     2.18760    0.00740     3.19466
      C   15   -0.23196      0.99961     2.22472    0.00763     3.23196
      C   16    0.34724      0.99964     1.62899    0.02413     2.65276
      O   17   -0.32414      0.99987     3.31820    0.00607     4.32414
      H   18    0.09410      0.00000     0.40470    0.00121     0.40590
      H   19    0.09582      0.00000     0.40304    0.00113     0.40418
      H   20    0.09910      0.00000     0.39994    0.00095     0.40090
      H   21    0.10163      0.00000     0.39658    0.00179     0.39837
      H   22    0.10782      0.00000     0.39105    0.00113     0.39218
      H   23    0.09091      0.00000     0.40775    0.00134     0.40909
      H   24    0.18496      0.00000     0.31283    0.00221     0.31504
      H   25    0.19004      0.00000     0.30830    0.00165     0.30996
      H   26    0.11525      0.00000     0.38352    0.00123     0.38475
      H   27    0.09442      0.00000     0.40450    0.00108     0.40558
      H   28    0.09825      0.00000     0.40064    0.00111     0.40175
      H   29    0.09120      0.00000     0.40694    0.00186     0.40880
      H   30    0.09917      0.00000     0.39926    0.00157     0.40083
      H   31    0.09526      0.00000     0.40341    0.00133     0.40474
      H   32    0.11035      0.00000     0.38867    0.00098     0.38965
      H   33    0.10569      0.00000     0.39253    0.00178     0.39431
 =======================================================================
   * Total *    0.00166     20.99319    44.78289    0.22226    65.99834

 Normal termination of Gaussian 16 at Sun Dec 13 21:32:24 2020.
