 Gaussian 16, Revision A.03,

 -----------------------------------------------------------
 # opt freq B3LYP/6-31G(d) empiricaldispersion=gd3bj scf=xqc
 -----------------------------------------------------------

 -------------------------------
 CID_119784605_JID_7308_neutraal
 -------------------------------
 Symbolic Z-matrix:
 Charge =  0 Multiplicity = 1

 SCF Done:  E(RB3LYP) =  -769.815332472     A.U. after   14 cycles
 SCF Done:  E(RB3LYP) =  -769.819657949     A.U. after   12 cycles
 SCF Done:  E(RB3LYP) =  -769.819866515     A.U. after   12 cycles
 SCF Done:  E(RB3LYP) =  -769.819610380     A.U. after   12 cycles
 SCF Done:  E(RB3LYP) =  -769.819992173     A.U. after   12 cycles
 SCF Done:  E(RB3LYP) =  -769.820552943     A.U. after   12 cycles
 SCF Done:  E(RB3LYP) =  -769.820681712     A.U. after   11 cycles
 SCF Done:  E(RB3LYP) =  -769.820712941     A.U. after   10 cycles
 SCF Done:  E(RB3LYP) =  -769.820727335     A.U. after    9 cycles
 SCF Done:  E(RB3LYP) =  -769.820735371     A.U. after    9 cycles
 SCF Done:  E(RB3LYP) =  -769.820740402     A.U. after    8 cycles
 SCF Done:  E(RB3LYP) =  -769.820742717     A.U. after    8 cycles
 SCF Done:  E(RB3LYP) =  -769.820742960     A.U. after    7 cycles
 SCF Done:  E(RB3LYP) =  -769.820743011     A.U. after    6 cycles
 Optimization completed.
    -- Stationary point found.
 Normal termination of Gaussian 16 at Mon Dec 14 16:43:14 2020.

 --------------------------------------------------------------------
 #N Geom=AllCheck Guess=TCheck SCRF=Check GenChk RB3LYP/6-31G(d) Freq
 --------------------------------------------------------------------

 Structure from the checkpoint file:  "JID_7308.chk"
 -------------------------------
 CID_119784605_JID_7308_neutraal
 -------------------------------
 Charge =  0 Multiplicity = 1

 SCF Done:  E(RB3LYP) =  -769.820743011     A.U. after    1 cycles

  Exact polarizability: 173.844   4.226 147.212  -5.645  -4.296 130.843
 Approx polarizability: 216.656   8.409 207.324  -8.515 -13.954 204.128

                      1                      2                      3
                      A                      A                      A
 Frequencies --     27.5846                50.9160                59.0461
 Red. masses --      4.5730                 2.8717                 3.6929
 Frc consts  --      0.0021                 0.0044                 0.0076
 IR Inten    --      0.1750                 0.0891                 0.1526

                      4                      5                      6
                      A                      A                      A
 Frequencies --     63.8514                95.8768               108.1953
 Red. masses --      4.0328                 2.9071                 3.2664
 Frc consts  --      0.0097                 0.0157                 0.0225
 IR Inten    --      0.5338                 1.7670                 0.5354

                      7                      8                      9
                      A                      A                      A
 Frequencies --    124.5243               145.7949               176.2125
 Red. masses --      3.5658                 2.3081                 2.4262
 Frc consts  --      0.0326                 0.0289                 0.0444
 IR Inten    --      3.3981                 2.2090                 0.4077

                     10                     11                     12
                      A                      A                      A
 Frequencies --    180.3840               205.5616               215.7819
 Red. masses --      2.5264                 3.1714                 1.6379
 Frc consts  --      0.0484                 0.0790                 0.0449
 IR Inten    --      0.2225                 0.2703                 1.1690

                     13                     14                     15
                      A                      A                      A
 Frequencies --    256.8800               279.9866               299.8820
 Red. masses --      1.2093                 2.3111                 2.2490
 Frc consts  --      0.0470                 0.1067                 0.1192
 IR Inten    --      0.2451                 0.4675                 1.9589

                     16                     17                     18
                      A                      A                      A
 Frequencies --    316.5269               320.6845               361.1070
 Red. masses --      2.7312                 2.6943                 4.5121
 Frc consts  --      0.1612                 0.1633                 0.3467
 IR Inten    --      0.4316                 2.2503                 6.3601

                     19                     20                     21
                      A                      A                      A
 Frequencies --    370.8034               390.2727               401.6704
 Red. masses --      4.6356                 1.9037                 2.0319
 Frc consts  --      0.3755                 0.1708                 0.1931
 IR Inten    --      1.2188                 1.9778                 1.5964

                     22                     23                     24
                      A                      A                      A
 Frequencies --    435.5606               446.8575               470.5049
 Red. masses --      3.9577                 2.8335                 3.3723
 Frc consts  --      0.4424                 0.3334                 0.4398
 IR Inten    --      6.7315                 4.5984                 0.7163

                     25                     26                     27
                      A                      A                      A
 Frequencies --    527.0169               564.2457               589.9077
 Red. masses --      2.8043                 2.2840                 2.8893
 Frc consts  --      0.4589                 0.4284                 0.5924
 IR Inten    --      4.9164                13.0761                83.2189

                     28                     29                     30
                      A                      A                      A
 Frequencies --    626.9756               653.0545               690.8481
 Red. masses --      3.7752                 1.4681                 2.6633
 Frc consts  --      0.8744                 0.3689                 0.7489
 IR Inten    --     17.8514                50.0877                26.0219

                     31                     32                     33
                      A                      A                      A
 Frequencies --    761.6863               780.4931               807.2190
 Red. masses --      3.8821                 1.3921                 1.8504
 Frc consts  --      1.3270                 0.4996                 0.7104
 IR Inten    --     48.4754                 5.1718                45.1279

                     34                     35                     36
                      A                      A                      A
 Frequencies --    816.8135               828.5885               841.9863
 Red. masses --      1.4289                 1.5254                 1.5200
 Frc consts  --      0.5617                 0.6170                 0.6349
 IR Inten    --      4.1032                 7.1587                 8.5235

                     37                     38                     39
                      A                      A                      A
 Frequencies --    871.1295               895.0670               903.3803
 Red. masses --      2.1032                 1.7428                 2.1778
 Frc consts  --      0.9404                 0.8227                 1.0471
 IR Inten    --      2.0231                 3.5589                 2.4735

                     40                     41                     42
                      A                      A                      A
 Frequencies --    924.3574               943.7144               962.1965
 Red. masses --      2.7364                 2.2386                 1.8993
 Frc consts  --      1.3776                 1.1746                 1.0361
 IR Inten    --      3.8559                 2.5354                 1.2943

                     43                     44                     45
                      A                      A                      A
 Frequencies --    966.3019               977.8162              1008.1533
 Red. masses --      2.2550                 2.9146                 1.9558
 Frc consts  --      1.2406                 1.6419                 1.1712
 IR Inten    --     12.6070                 8.8962                43.4379

                     46                     47                     48
                      A                      A                      A
 Frequencies --   1050.5177              1057.4822              1068.7093
 Red. masses --      1.3130                 1.5651                 1.7983
 Frc consts  --      0.8537                 1.0312                 1.2101
 IR Inten    --      1.5172                 1.7148                14.6601

                     49                     50                     51
                      A                      A                      A
 Frequencies --   1069.2672              1086.8840              1088.0930
 Red. masses --      1.4350                 2.4136                 1.4222
 Frc consts  --      0.9666                 1.6799                 0.9921
 IR Inten    --      2.5042                41.0966                 1.6714

                     52                     53                     54
                      A                      A                      A
 Frequencies --   1119.5430              1126.4886              1145.4287
 Red. masses --      2.3220                 3.0698                 3.5370
 Frc consts  --      1.7147                 2.2952                 2.7342
 IR Inten    --     13.8357                82.7514                11.2255

                     55                     56                     57
                      A                      A                      A
 Frequencies --   1153.3055              1173.3424              1181.9129
 Red. masses --      1.1819                 2.3952                 2.1445
 Frc consts  --      0.9262                 1.9428                 1.7650
 IR Inten    --      5.9250                15.5311                26.2313

                     58                     59                     60
                      A                      A                      A
 Frequencies --   1186.8735              1190.3394              1207.9398
 Red. masses --      1.7360                 1.7986                 2.1504
 Frc consts  --      1.4408                 1.5015                 1.8487
 IR Inten    --      3.8599                22.8526                27.2142

                     61                     62                     63
                      A                      A                      A
 Frequencies --   1214.3032              1222.9916              1235.5083
 Red. masses --      1.3929                 1.0782                 1.5349
 Frc consts  --      1.2101                 0.9502                 1.3804
 IR Inten    --      0.9749                14.4936                22.1907

                     64                     65                     66
                      A                      A                      A
 Frequencies --   1240.0242              1265.6034              1301.5935
 Red. masses --      1.9077                 1.5382                 1.3013
 Frc consts  --      1.7283                 1.4516                 1.2989
 IR Inten    --      2.0773                17.8811                 9.0657

                     67                     68                     69
                      A                      A                      A
 Frequencies --   1315.1739              1320.9841              1330.7649
 Red. masses --      1.4555                 1.5788                 1.3535
 Frc consts  --      1.4833                 1.6232                 1.4122
 IR Inten    --     22.8755                 4.0522                45.0300

                     70                     71                     72
                      A                      A                      A
 Frequencies --   1365.4213              1368.3546              1374.3600
 Red. masses --      1.4306                 1.3204                 1.2500
 Frc consts  --      1.5715                 1.4567                 1.3911
 IR Inten    --     19.6781                 9.8970                22.5421

                     73                     74                     75
                      A                      A                      A
 Frequencies --   1384.6527              1400.6161              1421.9443
 Red. masses --      1.3579                 1.5309                 2.2819
 Frc consts  --      1.5340                 1.7694                 2.7184
 IR Inten    --      5.8129                18.6737                84.1276

                     76                     77                     78
                      A                      A                      A
 Frequencies --   1431.2399              1446.2172              1448.6741
 Red. masses --      1.2891                 1.5658                 1.4864
 Frc consts  --      1.5559                 1.9295                 1.8379
 IR Inten    --     21.0232                 5.8818                15.2169

                     79                     80                     81
                      A                      A                      A
 Frequencies --   1491.4626              1495.4354              1498.1453
 Red. masses --      1.1518                 1.0994                 1.2257
 Frc consts  --      1.5095                 1.4486                 1.6208
 IR Inten    --      6.0691                 1.3825                 0.5531

                     82                     83                     84
                      A                      A                      A
 Frequencies --   1501.2711              1503.2664              1506.8194
 Red. masses --      1.2247                 1.2287                 1.1089
 Frc consts  --      1.6263                 1.6359                 1.4834
 IR Inten    --     24.4881                18.5004                 1.7715

                     85                     86                     87
                      A                      A                      A
 Frequencies --   1512.1564              1526.4358              1528.2290
 Red. masses --      1.1272                 1.0885                 1.1610
 Frc consts  --      1.5186                 1.4943                 1.5976
 IR Inten    --     14.0265                 4.5107                27.1336

                     88                     89                     90
                      A                      A                      A
 Frequencies --   1532.2654              1536.4080              1538.9160
 Red. masses --      1.0955                 1.2240                 1.1417
 Frc consts  --      1.5153                 1.7023                 1.5930
 IR Inten    --      0.4412                 1.9836                 5.0968

                     91                     92                     93
                      A                      A                      A
 Frequencies --   1539.5011              1548.1435              1758.8858
 Red. masses --      1.0586                 1.1025                 7.8128
 Frc consts  --      1.4783                 1.5569                14.2407
 IR Inten    --      7.6968                12.9094               335.2307

                     94                     95                     96
                      A                      A                      A
 Frequencies --   2953.6880              3018.8715              3031.0485
 Red. masses --      1.0726                 1.0370                 1.0594
 Frc consts  --      5.5132                 5.5681                 5.7345
 IR Inten    --     60.8012                42.0327                27.0129

                     97                     98                     99
                      A                      A                      A
 Frequencies --   3034.6787              3051.7018              3063.5822
 Red. masses --      1.0604                 1.0385                 1.0738
 Frc consts  --      5.7539                 5.6983                 5.9378
 IR Inten    --     40.7114                22.7562                 9.2208

                    100                    101                    102
                      A                      A                      A
 Frequencies --   3069.0051              3070.2087              3077.0384
 Red. masses --      1.1009                 1.0706                 1.1000
 Frc consts  --      6.1096                 5.9461                 6.1363
 IR Inten    --     17.7609                41.8094                10.7788

                    103                    104                    105
                      A                      A                      A
 Frequencies --   3082.8150              3085.7706              3112.3008
 Red. masses --      1.0828                 1.0905                 1.1008
 Frc consts  --      6.0629                 6.1178                 6.2823
 IR Inten    --     76.2013                68.5610                22.6679

                    106                    107                    108
                      A                      A                      A
 Frequencies --   3119.1660              3130.8600              3134.5933
 Red. masses --      1.1045                 1.1001                 1.1004
 Frc consts  --      6.3310                 6.3533                 6.3704
 IR Inten    --     40.5901                15.5481                33.0536

                    109                    110                    111
                      A                      A                      A
 Frequencies --   3143.9026              3147.7917              3152.0751
 Red. masses --      1.0506                 1.0592                 1.0973
 Frc consts  --      6.1183                 6.1833                 6.4236
 IR Inten    --     21.2632                14.1103                12.6935

                    112                    113                    114
                      A                      A                      A
 Frequencies --   3156.6487              3163.5055              3218.5581
 Red. masses --      1.0886                 1.0874                 1.1194
 Frc consts  --      6.3910                 6.4118                 6.8325
 IR Inten    --     11.5467                22.7933                 0.2864

                    115                    116                    117
                      A                      A                      A
 Frequencies --   3232.5318              3496.1827              3578.5910
 Red. masses --      1.1160                 1.0744                 1.0743
 Frc consts  --      6.8704                 7.7379                 8.1060
 IR Inten    --     25.3813                 2.4184                27.1226

 - Thermochemistry -
 -------------------
 Temperature   298.150 Kelvin.  Pressure   1.00000 Atm.
 Atom     1 has atomic number  6 and mass  12.00000

 Molecular mass:   240.18378 amu.
 Principal axes and moments of inertia in atomic units:
                           1         2         3
     Eigenvalues --  2375.122136348.968097256.80347
           X            1.00000  -0.00227   0.00168
           Y            0.00226   0.99999   0.00263
           Z           -0.00169  -0.00262   1.00000
 This molecule is an asymmetric top.
 Rotational symmetry number  1.
 Warning -- assumption of classical behavior for rotation
           may cause significant error
 Rotational temperatures (Kelvin)      0.03647     0.01364     0.01194
 Rotational constants (GHZ):           0.75985     0.28426     0.24870
 Zero-point vibrational energy     969468.2 (Joules/Mol)
                                  231.70846 (Kcal/Mol)
 Warning -- explicit consideration of  27 degrees of freedom as
           vibrations may cause significant error
 Vibrational temperatures:     39.69    73.26    84.95    91.87   137.95
          (Kelvin)            155.67   179.16   209.77   253.53   259.53
                              295.76   310.46   369.59   402.84   431.46
                              455.41   461.39   519.55   533.50   561.52
                              577.91   626.67   642.93   676.95   758.26
                              811.82   848.75   902.08   939.60   993.98
                             1095.90  1122.96  1161.41  1175.21  1192.15
                             1211.43  1253.36  1287.80  1299.76  1329.94
                             1357.79  1384.39  1390.29  1406.86  1450.51
                             1511.46  1521.48  1537.63  1538.44  1563.78
                             1565.52  1610.77  1620.77  1648.02  1659.35
                             1688.18  1700.51  1707.65  1712.63  1737.96
                             1747.11  1759.61  1777.62  1784.12  1820.92
                             1872.70  1892.24  1900.60  1914.67  1964.54
                             1968.76  1977.40  1992.21  2015.17  2045.86
                             2059.23  2080.78  2084.32  2145.88  2151.60
                             2155.50  2159.99  2162.87  2167.98  2175.66
                             2196.20  2198.78  2204.59  2210.55  2214.16
                             2215.00  2227.43  2530.64  4249.70  4343.48
                             4361.00  4366.23  4390.72  4407.81  4415.61
                             4417.35  4427.17  4435.48  4439.74  4477.91
                             4487.78  4504.61  4509.98  4523.37  4528.97
                             4535.13  4541.71  4551.58  4630.79  4650.89
                             5030.23  5148.79

 Zero-point correction=                           0.369251 (Hartree/Particle)
 Thermal correction to Energy=                    0.387166
 Thermal correction to Enthalpy=                  0.388110
 Thermal correction to Gibbs Free Energy=         0.323215
 Sum of electronic and zero-point Energies=           -769.451492
 Sum of electronic and thermal Energies=              -769.433577
 Sum of electronic and thermal Enthalpies=            -769.432633
 Sum of electronic and thermal Free Energies=         -769.497528

                     E (Thermal)             CV                S
                      KCal/Mol        Cal/Mol-Kelvin    Cal/Mol-Kelvin
 Total                  242.950             68.864            136.582
 Electronic               0.000              0.000              0.000
 Translational            0.889              2.981             42.330
 Rotational               0.889              2.981             33.059
 Vibrational            241.173             62.902             61.194
 Vibration     1          0.593              1.984              5.996
 Vibration     2          0.595              1.977              4.781
 Vibration     3          0.596              1.974              4.489
 Vibration     4          0.597              1.972              4.334
 Vibration     5          0.603              1.952              3.536
 Vibration     6          0.606              1.943              3.301
 Vibration     7          0.610              1.928              3.029
 Vibration     8          0.617              1.907              2.726
 Vibration     9          0.628              1.872              2.368
 Vibration    10          0.629              1.866              2.324
 Vibration    11          0.640              1.832              2.083
 Vibration    12          0.645              1.817              1.994
 Vibration    13          0.666              1.751              1.683
 Vibration    14          0.680              1.711              1.534
 Vibration    15          0.692              1.674              1.418
 Vibration    16          0.703              1.642              1.328
 Vibration    17          0.706              1.634              1.307
 Vibration    18          0.735              1.552              1.117
 Vibration    19          0.743              1.532              1.076
 Vibration    20          0.758              1.491              0.999
 Vibration    21          0.767              1.467              0.957
 Vibration    22          0.796              1.393              0.841
 Vibration    23          0.806              1.368              0.805
 Vibration    24          0.828              1.315              0.736
 Vibration    25          0.882              1.190              0.594
 Vibration    26          0.920              1.109              0.515
 Vibration    27          0.947              1.053              0.467

 Optimization completed.
    -- Stationary point found.
 Normal termination of Gaussian 16 at Mon Dec 14 17:03:18 2020.

 ----------------------------------------------------------------------
 # B3LYP/6-311++G(d,p) empiricaldispersion=gd3bj scf=xqc pop=npa geom=c
 heck
 ----------------------------------------------------------------------

 ---------------------------------------
 CID_119784605_JID_7308_Energie_neutraal
 ---------------------------------------
 Structure from the checkpoint file:  "JID_7308.chk"
 Charge =  0 Multiplicity = 1

 SCF Done:  E(RB3LYP) =  -770.043693162     A.U. after   15 cycles
 Normal termination of Gaussian 16 at Mon Dec 14 17:12:52 2020.

 ----------------------------------------------------------------------
 # B3LYP/6-311++G(d,p) empiricaldispersion=gd3bj scf=xqc pop=npa geom=c
 heck
 ----------------------------------------------------------------------

 -------------------------------------
 CID_119784605_JID_7308_Energie_kation
 -------------------------------------
 Structure from the checkpoint file:  "JID_7308.chk"
 Charge =  1 Multiplicity = 2

 SCF Done:  E(UB3LYP) =  -769.748399940     A.U. after   24 cycles
 Normal termination of Gaussian 16 at Mon Dec 14 17:34:57 2020.
 Gaussian 16:  ES64L-G16RevA.03 25-Dec-2016

 ----------------------------------------------------------------------
 # B3LYP/6-311++G(d,p) empiricaldispersion=gd3bj scf=xqc pop=npa geom=c
 heck
 ----------------------------------------------------------------------

 ------------------------------------
 CID_119784605_JID_7308_Energie_anion
 ------------------------------------
 Structure from the checkpoint file:  "JID_7308.chk"
 Charge = -1 Multiplicity = 2

                         Standard orientation:
 ---------------------------------------------------------------------
 Center     Atomic      Atomic             Coordinates (Angstroms)
 Number     Number       Type             X           Y           Z
 ---------------------------------------------------------------------
      1          6           0        1.928466    2.221177    0.670493
      2          6           0        1.517369    1.008960   -0.173278
      3          6           0        2.693702    0.377700   -0.942677
      4          6           0        3.788020   -0.210566   -0.073931
      5          6           0        3.685005   -1.634461    0.434148
      6          6           0        4.692111   -1.280321   -0.630957
      7          7           0        0.879340   -0.012223    0.660279
      8          6           0       -0.426027   -0.258748    0.977266
      9          8           0       -0.699130   -1.055753    1.871968
     10          6           0       -1.537283    0.411156    0.133143
     11          6           0       -2.915403    0.176614    0.778562
     12          6           0       -3.437960   -1.256478    0.623105
     13          7           0       -3.393830   -1.649905   -0.790554
     14          6           0       -2.023808   -1.624374   -1.299621
     15          6           0       -1.524934   -0.176131   -1.295350
     16          8           0       -1.220462    1.816717    0.179380
     17          6           0       -1.855647    2.673540   -0.750780
     18          1           0        2.614996    1.933154    1.474384
     19          1           0        1.037788    2.665699    1.120344
     20          1           0        2.427476    2.975539    0.050400
     21          1           0        0.783303    1.345660   -0.902621
     22          1           0        2.297491   -0.409952   -1.597381
     23          1           0        3.123945    1.148021   -1.597127
     24          1           0        4.266193    0.497348    0.600242
     25          1           0        4.047727   -1.859324    1.433378
     26          1           0        2.817101   -2.216108    0.134915
     27          1           0        4.500551   -1.625162   -1.644033
     28          1           0        5.743839   -1.260530   -0.360531
     29          1           0        1.507313   -0.509954    1.281660
     30          1           0       -2.858173    0.441298    1.837362
     31          1           0       -3.625828    0.854969    0.293359
     32          1           0       -2.844850   -1.919495    1.267757
     33          1           0       -4.481224   -1.296599    0.957525
     34          1           0       -3.771762   -2.590080   -0.887075
     35          1           0       -2.022912   -2.003146   -2.327823
     36          1           0       -1.330729   -2.256553   -0.713642
     37          1           0       -2.205378    0.405377   -1.925295
     38          1           0       -0.523241   -0.119162   -1.732730
     39          1           0       -1.451976    2.558464   -1.766444
     40          1           0       -2.942795    2.527894   -0.788098
     41          1           0       -1.652353    3.691420   -0.408139
 ---------------------------------------------------------------------

 SCF Done:  E(UB3LYP) =  -770.030985571     A.U. after   33 cycles
 SCF Done:  E(UB3LYP) =  -770.030985571     a.u. after    1 cycles

 The electronic state is 2-A.
 Alpha  occ. eigenvalues --  -19.03473 -18.99282 -14.23693 -14.20464 -10.17720
 Alpha  occ. eigenvalues --  -10.14595 -10.11787 -10.11779 -10.09913 -10.09400
 Alpha  occ. eigenvalues --  -10.09252 -10.08608 -10.08454 -10.07979 -10.07666
 Alpha  occ. eigenvalues --  -10.07158 -10.06541  -0.95435  -0.93604  -0.82864
 Alpha  occ. eigenvalues --   -0.81896  -0.77466  -0.70183  -0.68306  -0.66264
 Alpha  occ. eigenvalues --   -0.61161  -0.60737  -0.54768  -0.53726  -0.53006
 Alpha  occ. eigenvalues --   -0.51756  -0.50422  -0.47974  -0.45204  -0.42535
 Alpha  occ. eigenvalues --   -0.41663  -0.40796  -0.38727  -0.37594  -0.36973
 Alpha  occ. eigenvalues --   -0.36722  -0.35766  -0.35429  -0.34085  -0.33634
 Alpha  occ. eigenvalues --   -0.33283  -0.31578  -0.31328  -0.29576  -0.29400
 Alpha  occ. eigenvalues --   -0.28881  -0.28721  -0.28107  -0.27083  -0.26606
 Alpha  occ. eigenvalues --   -0.26105  -0.25605  -0.24387  -0.24149  -0.21784
 Alpha  occ. eigenvalues --   -0.20802  -0.20104  -0.16975  -0.16276  -0.15715
 Alpha  occ. eigenvalues --   -0.13579   0.04116
 Alpha virt. eigenvalues --    0.05819   0.06299   0.07044   0.07665   0.08024
 Alpha virt. eigenvalues --    0.08431   0.09009   0.09326   0.09916   0.10306
 Alpha virt. eigenvalues --    0.10752   0.10871   0.11077   0.11341   0.12142

  Beta  occ. eigenvalues --  -19.03460 -18.99275 -14.23692 -14.20452 -10.17715
  Beta  occ. eigenvalues --  -10.14596 -10.11773 -10.11748 -10.09895 -10.09396
  Beta  occ. eigenvalues --  -10.09245 -10.08600 -10.08434 -10.07957 -10.07649
  Beta  occ. eigenvalues --  -10.07152 -10.06521  -0.95412  -0.93582  -0.82854
  Beta  occ. eigenvalues --   -0.81875  -0.77449  -0.70160  -0.68282  -0.66240
  Beta  occ. eigenvalues --   -0.61115  -0.60698  -0.54727  -0.53695  -0.52976
  Beta  occ. eigenvalues --   -0.51710  -0.50390  -0.47932  -0.45179  -0.42493
  Beta  occ. eigenvalues --   -0.41634  -0.40766  -0.38700  -0.37572  -0.36941
  Beta  occ. eigenvalues --   -0.36696  -0.35745  -0.35406  -0.34055  -0.33611
  Beta  occ. eigenvalues --   -0.33255  -0.31550  -0.31300  -0.29549  -0.29374
  Beta  occ. eigenvalues --   -0.28853  -0.28688  -0.28086  -0.27059  -0.26577
  Beta  occ. eigenvalues --   -0.26082  -0.25583  -0.24356  -0.24125  -0.21747
  Beta  occ. eigenvalues --   -0.20780  -0.20082  -0.16954  -0.16263  -0.15696
  Beta  occ. eigenvalues --   -0.13555
  Beta virt. eigenvalues --    0.06163   0.06469   0.07038   0.07556   0.08099
  Beta virt. eigenvalues --    0.08316   0.08691   0.09433   0.09778   0.10067
  Beta virt. eigenvalues --    0.10551   0.10930   0.11136   0.11311   0.11661

 Mulliken charges and spin densities:
               1          2
     1  C    0.492853  -1.132620
     2  C   -0.731305   0.896551
     3  C    0.612141  -1.347363
     4  C   -1.209938   1.435602
     5  C    0.008742  -0.462538
     6  C    0.323440  -0.733506
     7  N    0.059907  -0.055521
     8  C    0.047677  -0.611769
     9  O   -0.259025   0.012078
    10  C   -0.282979  -0.026970
    11  C   -0.473594   0.436232
    12  C   -0.115977  -0.365555
    13  N   -0.212305   0.070009
    14  C    0.748596  -1.195756
    15  C   -0.185143   0.283976
    16  O   -0.027413   0.022917
    17  C    0.777290  -1.007235
    18  H    0.026562   0.099372
    19  H    0.187266   0.001910
    20  H   -0.166957   0.315829
    21  H    0.456159  -0.242067
    22  H    0.103734   0.043361
    23  H   -0.282356   0.453675
    24  H   -0.095882   0.316103
    25  H    0.035176   0.105858
    26  H    0.080150   0.082871
    27  H   -0.145947   0.281630
    28  H   -0.198653   0.348443
    29  H    0.400643  -0.084243
    30  H    0.160649   0.034214
    31  H    0.066971   0.046972
    32  H    0.171790   0.003139
    33  H    0.016052   0.149385
    34  H    0.082853   0.161837
    35  H   -0.522766   0.728266
    36  H    0.132558   0.011481
    37  H    0.115157   0.075337
    38  H   -0.320669   0.520105
    39  H   -0.459474   0.616395
    40  H   -0.136198   0.288781
    41  H   -0.279787   0.422816
 Sum of Mulliken charges =  -1.00000   1.00000

 Dipole moment (field-independent basis, Debye):
    X=             -1.2289    Y=             -1.7386    Z=              4.0997  Tot=              4.6196
 Quadrupole moment (field-independent basis, Debye-Ang):
   XX=           -181.5397   YY=           -157.0048   ZZ=           -153.4291
   XY=              0.7049   XZ=             -1.5011   YZ=              4.6194

 Summary of Natural Population Analysis:

                                       Natural Population
                Natural  -----------------------------------------------
    Atom  No    Charge         Core      Valence    Rydberg      Total
 -----------------------------------------------------------------------
      C    1   -0.28856      0.99964     2.28331    0.00561     3.28856
      C    2   -0.01329      0.99958     2.00095    0.01276     3.01329
      C    3   -0.18963      0.99959     2.17956    0.01048     3.18963
      C    4   -0.12124      0.99959     2.11083    0.01081     3.12124
      C    5   -0.20607      0.99962     2.19881    0.00764     3.20607
      C    6   -0.19486      0.99961     2.18635    0.00890     3.19486
      N    7   -0.31647      0.99965     2.80663    0.01019     3.81647
      C    8    0.34836      0.99959     1.62821    0.02384     2.65164
      O    9   -0.32984      0.99988     3.32471    0.00525     4.32984
      C   10    0.11491      0.99945     1.87054    0.01510     2.88509
      C   11   -0.20605      0.99959     2.19492    0.01154     3.20605
      C   12   -0.09053      0.99961     2.08024    0.01068     3.09053
      N   13   -0.34180      0.99974     2.83114    0.01091     3.84180
      C   14   -0.08782      0.99962     2.07658    0.01162     3.08782
      C   15   -0.21049      0.99958     2.19976    0.01116     3.21049
      O   16   -0.31116      0.99987     3.29971    0.01158     4.31116
      C   17   -0.10062      0.99959     2.09165    0.00938     3.10062
      H   18    0.09403      0.00000     0.40495    0.00102     0.40597
      H   19    0.10968      0.00000     0.38912    0.00120     0.39032
      H   20    0.10106      0.00000     0.39798    0.00096     0.39894
      H   21    0.10666      0.00000     0.39007    0.00328     0.39334
      H   22    0.10106      0.00000     0.39700    0.00194     0.39894
      H   23    0.10469      0.00000     0.39391    0.00140     0.39531
      H   24    0.10381      0.00000     0.39500    0.00119     0.39619
      H   25    0.10186      0.00000     0.39726    0.00088     0.39814
      H   26    0.10451      0.00000     0.39420    0.00129     0.39549
      H   27    0.10239      0.00000     0.39663    0.00098     0.39761
      H   28    0.10237      0.00000     0.39661    0.00102     0.39763
      H   29    0.19445      0.00000     0.30256    0.00299     0.30555
      H   30    0.10912      0.00000     0.38992    0.00097     0.39088
      H   31    0.10045      0.00000     0.39813    0.00142     0.39955
      H   32    0.09369      0.00000     0.40494    0.00137     0.40631
      H   33    0.09123      0.00000     0.40791    0.00086     0.40877
      H   34    0.17354      0.00000     0.32407    0.00239     0.32646
      H   35    0.09881      0.00000     0.39975    0.00144     0.40119
      H   36    0.08153      0.00000     0.41687    0.00160     0.41847
      H   37    0.10687      0.00000     0.39082    0.00231     0.39313
      H   38    0.10538      0.00000     0.39259    0.00203     0.39462
      H   39    0.08347      0.00000     0.41472    0.00181     0.41653
      H   40    0.08130      0.00000     0.41733    0.00136     0.41870
      H   41    0.09318      0.00000     0.40574    0.00107     0.40682
 =======================================================================
   * Total *   -0.00000     16.99380    48.78199    0.22421    66.00000

 Normal termination of Gaussian 16 at Mon Dec 14 18:04:50 2020.
