 Gaussian 16, Revision A.03,

 -----------------------------------------------------------
 # opt freq B3LYP/6-31G(d) empiricaldispersion=gd3bj scf=xqc
 -----------------------------------------------------------

 -------------------------------
 CID_150255849_JID_5639_neutraal
 -------------------------------
 Symbolic Z-matrix:
 Charge =  0 Multiplicity = 1

 SCF Done:  E(RB3LYP) =  -695.038777751     A.U. after   15 cycles
 SCF Done:  E(RB3LYP) =  -695.040512284     A.U. after   15 cycles
 SCF Done:  E(RB3LYP) =  -695.040514538     A.U. after   15 cycles
 SCF Done:  E(RB3LYP) =  -695.041887067     A.U. after   13 cycles
 SCF Done:  E(RB3LYP) =  -695.041549256     A.U. after   14 cycles
 SCF Done:  E(RB3LYP) =  -695.042263577     A.U. after   13 cycles
 SCF Done:  E(RB3LYP) =  -695.042382667     A.U. after   12 cycles
 SCF Done:  E(RB3LYP) =  -695.042410064     A.U. after   12 cycles
 SCF Done:  E(RB3LYP) =  -695.042411470     A.U. after    8 cycles
 SCF Done:  E(RB3LYP) =  -695.042411949     A.U. after    8 cycles
 SCF Done:  E(RB3LYP) =  -695.042412036     A.U. after    7 cycles
 Optimization completed.
    -- Stationary point found.
 Normal termination of Gaussian 16 at Thu Dec 10 16:37:15 2020.

 --------------------------------------------------------------------
 #N Geom=AllCheck Guess=TCheck SCRF=Check GenChk RB3LYP/6-31G(d) Freq
 --------------------------------------------------------------------

 Structure from the checkpoint file:  "JID_5639.chk"
 -------------------------------
 CID_150255849_JID_5639_neutraal
 -------------------------------
 Charge =  0 Multiplicity = 1

 SCF Done:  E(RB3LYP) =  -695.042412036     A.U. after    1 cycles

  Exact polarizability: 190.008  -1.470 126.213   3.098  -0.485  97.051
 Approx polarizability: 258.900  -8.855 178.228   8.001  -0.596 148.869

                      1                      2                      3
                      A                      A                      A
 Frequencies --     21.3900                23.0019                36.7619
 Red. masses --      5.2312                 7.2060                 6.6958
 Frc consts  --      0.0014                 0.0022                 0.0053
 IR Inten    --      0.8459                 0.5518                 2.7123

                      4                      5                      6
                      A                      A                      A
 Frequencies --     42.2532                57.0722                60.9596
 Red. masses --      3.1994                 3.9095                 3.3396
 Frc consts  --      0.0034                 0.0075                 0.0073
 IR Inten    --      0.2350                 0.3784                 0.1128

                      7                      8                      9
                      A                      A                      A
 Frequencies --     88.0764               134.2184               147.8928
 Red. masses --      3.1820                 3.1087                 3.5031
 Frc consts  --      0.0145                 0.0330                 0.0451
 IR Inten    --      0.2862                 0.0895                 0.7713

                     10                     11                     12
                      A                      A                      A
 Frequencies --    176.8307               193.1945               241.0284
 Red. masses --      2.2154                 2.3901                 1.6550
 Frc consts  --      0.0408                 0.0526                 0.0566
 IR Inten    --      0.1353                 0.4834                 1.2690

                     13                     14                     15
                      A                      A                      A
 Frequencies --    266.9111               286.0586               303.5598
 Red. masses --      3.7679                 2.7542                 1.9230
 Frc consts  --      0.1582                 0.1328                 0.1044
 IR Inten    --      3.1325                 3.3605                 0.1905

                     16                     17                     18
                      A                      A                      A
 Frequencies --    336.5968               364.5726               382.3818
 Red. masses --      2.5231                 2.2581                 2.6694
 Frc consts  --      0.1684                 0.1768                 0.2300
 IR Inten    --      1.6009                 0.0145                 0.8123

                     19                     20                     21
                      A                      A                      A
 Frequencies --    403.9286               434.6363               449.3570
 Red. masses --      2.8298                 2.2110                 3.7458
 Frc consts  --      0.2720                 0.2461                 0.4456
 IR Inten    --      0.6037                 0.1654                 2.0919

                     22                     23                     24
                      A                      A                      A
 Frequencies --    495.8722               556.9437               598.3145
 Red. masses --      2.1666                 2.6904                 3.5512
 Frc consts  --      0.3139                 0.4917                 0.7490
 IR Inten    --      0.8522                 1.8953                67.0308

                     25                     26                     27
                      A                      A                      A
 Frequencies --    639.4919               693.9366               711.8377
 Red. masses --      2.0134                 2.2321                 1.2552
 Frc consts  --      0.4851                 0.6333                 0.3747
 IR Inten    --     54.0104                84.1248                26.0969

                     28                     29                     30
                      A                      A                      A
 Frequencies --    734.5745               754.9143               783.8717
 Red. masses --      1.5971                 2.7461                 2.1139
 Frc consts  --      0.5078                 0.9221                 0.7653
 IR Inten    --      9.7542                18.1411                14.0459

                     31                     32                     33
                      A                      A                      A
 Frequencies --    794.7806               819.5532               853.4825
 Red. masses --      2.4888                 2.5991                 1.6650
 Frc consts  --      0.9263                 1.0286                 0.7146
 IR Inten    --      6.2216                 0.7802                 2.1682

                     34                     35                     36
                      A                      A                      A
 Frequencies --    877.4371               899.7058               920.6887
 Red. masses --      2.0646                 2.1421                 1.7283
 Frc consts  --      0.9365                 1.0216                 0.8632
 IR Inten    --      2.8016                 4.9000                 4.1210

                     37                     38                     39
                      A                      A                      A
 Frequencies --    951.8585               985.6358              1006.5393
 Red. masses --      1.7384                 1.7100                 1.6494
 Frc consts  --      0.9280                 0.9788                 0.9846
 IR Inten    --      3.7883                 3.0524                 2.8186

                     40                     41                     42
                      A                      A                      A
 Frequencies --   1017.0437              1036.1167              1064.4278
 Red. masses --      1.5067                 1.2115                 1.5154
 Frc consts  --      0.9183                 0.7663                 1.0116
 IR Inten    --     13.6402                14.3316                 2.9092

                     43                     44                     45
                      A                      A                      A
 Frequencies --   1075.9119              1090.4372              1120.2031
 Red. masses --      1.8607                 1.6185                 2.3113
 Frc consts  --      1.2690                 1.1339                 1.7089
 IR Inten    --      5.0669                 6.8831                 8.8190

                     46                     47                     48
                      A                      A                      A
 Frequencies --   1137.9235              1150.5485              1168.2156
 Red. masses --      1.9047                 2.5888                 2.6713
 Frc consts  --      1.4531                 2.0191                 2.1479
 IR Inten    --     11.2412               125.0388               238.5245

                     49                     50                     51
                      A                      A                      A
 Frequencies --   1192.3175              1211.7099              1239.0357
 Red. masses --      1.4530                 1.4260                 1.2834
 Frc consts  --      1.2170                 1.2335                 1.1609
 IR Inten    --     46.3005                 7.5526                 3.4834

                     52                     53                     54
                      A                      A                      A
 Frequencies --   1266.7439              1273.8258              1302.6050
 Red. masses --      1.6008                 1.5519                 1.2610
 Frc consts  --      1.5135                 1.4837                 1.2607
 IR Inten    --      6.0057                 8.0345                 1.6454

                     55                     56                     57
                      A                      A                      A
 Frequencies --   1325.4358              1338.1675              1346.0156
 Red. masses --      1.2193                 1.1776                 1.3715
 Frc consts  --      1.2621                 1.2424                 1.4640
 IR Inten    --      0.2460                 4.1048                 3.8580

                     58                     59                     60
                      A                      A                      A
 Frequencies --   1355.2985              1367.6517              1379.9273
 Red. masses --      1.1123                 1.3908                 1.3370
 Frc consts  --      1.2037                 1.5327                 1.5000
 IR Inten    --      0.0168                 1.2030                32.9723

                     61                     62                     63
                      A                      A                      A
 Frequencies --   1390.4268              1402.8417              1409.7459
 Red. masses --      1.5040                 1.3665                 2.7186
 Frc consts  --      1.7132                 1.5845                 3.1833
 IR Inten    --      5.6416                 3.1758                10.3799

                     64                     65                     66
                      A                      A                      A
 Frequencies --   1412.0454              1425.0364              1427.5563
 Red. masses --      1.5649                 1.4191                 1.4298
 Frc consts  --      1.8384                 1.6979                 1.7168
 IR Inten    --      2.5475                 2.1742                 1.7385

                     67                     68                     69
                      A                      A                      A
 Frequencies --   1444.0592              1505.5764              1514.2893
 Red. masses --      1.2718                 1.0800                 1.0953
 Frc consts  --      1.5625                 1.4424                 1.4799
 IR Inten    --      5.1358                 1.1721                 6.1735

                     70                     71                     72
                      A                      A                      A
 Frequencies --   1518.3330              1521.5561              1527.7530
 Red. masses --      1.0810                 1.0870                 1.0618
 Frc consts  --      1.4683                 1.4827                 1.4602
 IR Inten    --      4.9039                 5.5645                10.4940

                     73                     74                     75
                      A                      A                      A
 Frequencies --   1533.8434              1535.8856              1538.8713
 Red. masses --      1.0676                 1.0804                 1.0664
 Frc consts  --      1.4798                 1.5016                 1.4880
 IR Inten    --     11.8666                 3.4200                 2.5174

                     76                     77                     78
                      A                      A                      A
 Frequencies --   1546.0468              1707.4551              1767.5542
 Red. masses --      1.0879                 5.7253                11.9879
 Frc consts  --      1.5320                 9.8344                22.0667
 IR Inten    --      1.2755                55.6826               281.4981

                     79                     80                     81
                      A                      A                      A
 Frequencies --   1820.0384              3026.9999              3032.7758
 Red. masses --     10.4123                 1.0631                 1.0649
 Frc consts  --     20.3216                 5.7390                 5.7706
 IR Inten    --    229.0216                17.1817                32.5132

                     82                     83                     84
                      A                      A                      A
 Frequencies --   3035.5445              3039.8376              3042.3099
 Red. masses --      1.0624                 1.0622                 1.0616
 Frc consts  --      5.7678                 5.7833                 5.7892
 IR Inten    --     34.4405                14.4061                 9.3334

                     85                     86                     87
                      A                      A                      A
 Frequencies --   3044.5848              3045.6580              3051.9298
 Red. masses --      1.0595                 1.0428                 1.0637
 Frc consts  --      5.7862                 5.6994                 5.8372
 IR Inten    --      5.0495                24.0315                 4.9745

                     88                     89                     90
                      A                      A                      A
 Frequencies --   3058.2032              3065.0586              3072.5372
 Red. masses --      1.0979                 1.0980                 1.0986
 Frc consts  --      6.0498                 6.0775                 6.1108
 IR Inten    --      5.3385                33.7998                40.8979

                     91                     92                     93
                      A                      A                      A
 Frequencies --   3078.1882              3080.9490              3088.5377
 Red. masses --      1.0998                 1.0999                 1.0998
 Frc consts  --      6.1399                 6.1513                 6.1814
 IR Inten    --    124.0010                87.3035                51.1887

                     94                     95                     96
                      A                      A                      A
 Frequencies --   3094.1240              3109.9557              3117.1406
 Red. masses --      1.1040                 1.1015                 1.1019
 Frc consts  --      6.2273                 6.2769                 6.3083
 IR Inten    --     33.7459                49.3021                50.6316

                     97                     98                     99
                      A                      A                      A
 Frequencies --   3178.4226              3220.6553              3677.5768
 Red. masses --      1.0907                 1.0880                 1.0640
 Frc consts  --      6.4917                 6.6492                 8.4784
 IR Inten    --      5.8243                 1.3476                54.9825

 - Thermochemistry -
 -------------------
 Temperature   298.150 Kelvin.  Pressure   1.00000 Atm.
 Atom     1 has atomic number  6 and mass  12.00000

 Molecular mass:   212.14124 amu.
 Principal axes and moments of inertia in atomic units:
                           1         2         3
     Eigenvalues --  1389.239619579.48331**********
           X            0.99997  -0.00742  -0.00042
           Y            0.00742   0.99996  -0.00468
           Z            0.00046   0.00467   0.99999
 This molecule is an asymmetric top.
 Rotational symmetry number  1.
 Warning -- assumption of classical behavior for rotation
           may cause significant error
 Rotational temperatures (Kelvin)      0.06235     0.00904     0.00826
 Rotational constants (GHZ):           1.29909     0.18840     0.17214
 Zero-point vibrational energy     808075.0 (Joules/Mol)
                                  193.13455 (Kcal/Mol)
 Warning -- explicit consideration of  24 degrees of freedom as
           vibrations may cause significant error
 Vibrational temperatures:     30.78    33.09    52.89    60.79    82.11
          (Kelvin)             87.71   126.72   193.11   212.78   254.42
                              277.96   346.79   384.03   411.57   436.75
                              484.29   524.54   550.16   581.16   625.34
                              646.52   713.45   801.32   860.84   920.09
                              998.42  1024.18  1056.89  1086.15  1127.82
                             1143.51  1179.15  1227.97  1262.44  1294.48
                             1324.67  1369.51  1418.11  1448.19  1463.30
                             1490.74  1531.47  1548.00  1568.90  1611.72
                             1637.22  1655.38  1680.80  1715.48  1743.38
                             1782.70  1822.56  1832.75  1874.16  1907.01
                             1925.32  1936.62  1949.97  1967.75  1985.41
                             2000.51  2018.38  2028.31  2031.62  2050.31
                             2053.94  2077.68  2166.19  2178.72  2184.54
                             2189.18  2198.10  2206.86  2209.80  2214.09
                             2224.42  2456.65  2543.12  2618.63  4355.18
                             4363.49  4367.47  4373.65  4377.21  4380.48
                             4382.02  4391.05  4400.07  4409.94  4420.70
                             4428.83  4432.80  4443.72  4451.75  4474.53
                             4484.87  4573.04  4633.80  5291.21

 Zero-point correction=                           0.307780 (Hartree/Particle)
 Thermal correction to Energy=                    0.324879
 Thermal correction to Enthalpy=                  0.325823
 Thermal correction to Gibbs Free Energy=         0.259496
 Sum of electronic and zero-point Energies=           -694.734633
 Sum of electronic and thermal Energies=              -694.717533
 Sum of electronic and thermal Enthalpies=            -694.716589
 Sum of electronic and thermal Free Energies=         -694.782916

                     E (Thermal)             CV                S
                      KCal/Mol        Cal/Mol-Kelvin    Cal/Mol-Kelvin
 Total                  203.865             61.622            139.597
 Electronic               0.000              0.000              0.000
 Translational            0.889              2.981             41.960
 Rotational               0.889              2.981             33.300
 Vibrational            202.087             55.660             64.337
 Vibration     1          0.593              1.985              6.501
 Vibration     2          0.593              1.985              6.357
 Vibration     3          0.594              1.982              5.426
 Vibration     4          0.595              1.980              5.151
 Vibration     5          0.596              1.975              4.556
 Vibration     6          0.597              1.973              4.426
 Vibration     7          0.601              1.958              3.702
 Vibration     8          0.613              1.919              2.885
 Vibration     9          0.617              1.905              2.699
 Vibration    10          0.628              1.871              2.362
 Vibration    11          0.635              1.849              2.197
 Vibration    12          0.658              1.778              1.795
 Vibration    13          0.672              1.734              1.616
 Vibration    14          0.684              1.700              1.497
 Vibration    15          0.695              1.667              1.397
 Vibration    16          0.717              1.602              1.228
 Vibration    17          0.738              1.545              1.103
 Vibration    18          0.752              1.508              1.030
 Vibration    19          0.769              1.462              0.948
 Vibration    20          0.795              1.395              0.844
 Vibration    21          0.808              1.362              0.798
 Vibration    22          0.851              1.259              0.669
 Vibration    23          0.912              1.125              0.530
 Vibration    24          0.956              1.035              0.453

                           ! Non-Optimized Parameters !
 Normal termination of Gaussian 16 at Thu Dec 10 16:48:05 2020.

 ----------------------------------------------------------------------
 # B3LYP/6-311++G(d,p) empiricaldispersion=gd3bj scf=xqc pop=npa geom=c
 heck
 ----------------------------------------------------------------------

 ---------------------------------------
 CID_150255849_JID_5639_Energie_neutraal
 ---------------------------------------
 Structure from the checkpoint file:  "JID_5639.chk"
 Charge =  0 Multiplicity = 1

 SCF Done:  E(RB3LYP) =  -695.252184609     A.U. after   14 cycles
 Normal termination of Gaussian 16 at Thu Dec 10 16:53:27 2020.

 ----------------------------------------------------------------------
 # B3LYP/6-311++G(d,p) empiricaldispersion=gd3bj scf=xqc pop=npa geom=c
 heck
 ----------------------------------------------------------------------

 -------------------------------------
 CID_150255849_JID_5639_Energie_kation
 -------------------------------------
 Structure from the checkpoint file:  "JID_5639.chk"
 Charge =  1 Multiplicity = 2

 SCF Done:  E(UB3LYP) =  -694.912935661     A.U. after   33 cycles
 SCF Done:  E(UB3LYP) =  -694.912935679     a.u. after    2 cycles
 Normal termination of Gaussian 16 at Thu Dec 10 17:26:31 2020.
 Gaussian 16:  ES64L-G16RevA.03 25-Dec-2016

 ----------------------------------------------------------------------
 # B3LYP/6-311++G(d,p) empiricaldispersion=gd3bj scf=xqc pop=npa geom=c
 heck
 ----------------------------------------------------------------------

 ------------------------------------
 CID_150255849_JID_5639_Energie_anion
 ------------------------------------
 Structure from the checkpoint file:  "JID_5639.chk"
 Charge = -1 Multiplicity = 2

                         Standard orientation:
 ---------------------------------------------------------------------
 Center     Atomic      Atomic             Coordinates (Angstroms)
 Number     Number       Type             X           Y           Z
 ---------------------------------------------------------------------
      1          6           0       -5.481362    1.592367   -0.257119
      2          6           0       -4.876531    0.576940    0.716890
      3          6           0       -4.251761   -0.647874    0.031516
      4          6           0       -3.111656   -0.334925   -0.951095
      5          6           0       -1.934869    0.449976   -0.350203
      6          6           0       -1.263085   -0.212395    0.862846
      7          6           0       -0.734948   -1.634336    0.618015
      8          6           0        0.270863   -1.764000   -0.550952
      9          6           0        1.435531   -0.839309   -0.396003
     10          6           0        2.688111   -1.238055   -0.114365
     11          6           0        3.851367   -0.364629    0.074733
     12          8           0        4.972745   -0.799716    0.276841
     13          6           0        3.650993    1.166705    0.055476
     14          8           0        2.650998    1.749070    0.420160
     15          8           0        4.755301    1.792091   -0.383948
     16          1           0       -4.717297    2.041035   -0.901602
     17          1           0       -5.978646    2.407539    0.280029
     18          1           0       -6.225909    1.117619   -0.908250
     19          1           0       -4.125303    1.075709    1.343297
     20          1           0       -5.657447    0.228240    1.405228
     21          1           0       -3.889305   -1.338485    0.804398
     22          1           0       -5.038469   -1.189652   -0.511813
     23          1           0       -2.746285   -1.281637   -1.371003
     24          1           0       -3.508433    0.231373   -1.803103
     25          1           0       -1.189038    0.618232   -1.138797
     26          1           0       -2.275072    1.449800   -0.052736
     27          1           0       -0.439487    0.428314    1.202444
     28          1           0       -1.974093   -0.252377    1.697413
     29          1           0       -0.248270   -1.993160    1.533142
     30          1           0       -1.570839   -2.316763    0.421125
     31          1           0        0.616291   -2.802014   -0.616617
     32          1           0       -0.244714   -1.533902   -1.493287
     33          1           0        1.230007    0.223166   -0.479188
     34          1           0        2.929002   -2.295703   -0.023200
     35          1           0        4.565023    2.748304   -0.330335
 ---------------------------------------------------------------------

 SCF Done:  E(UB3LYP) =  -695.279039454     A.U. after   27 cycles

 The electronic state is 2-A.
 Alpha  occ. eigenvalues --  -19.02431 -18.95745 -18.91005 -10.13518 -10.08903
 Alpha  occ. eigenvalues --  -10.08706 -10.08146 -10.07429 -10.06623 -10.05817
 Alpha  occ. eigenvalues --  -10.05720 -10.05385 -10.04573 -10.01168 -10.01055
 Alpha  occ. eigenvalues --   -0.96308  -0.86967  -0.85360  -0.72768  -0.69530
 Alpha  occ. eigenvalues --   -0.66225  -0.62873  -0.59795  -0.56648  -0.53387
 Alpha  occ. eigenvalues --   -0.51563  -0.48704  -0.45216  -0.42247  -0.40365
 Alpha  occ. eigenvalues --   -0.39197  -0.38755  -0.35414  -0.34990  -0.34015
 Alpha  occ. eigenvalues --   -0.32686  -0.32445  -0.31743  -0.30529  -0.29733
 Alpha  occ. eigenvalues --   -0.29189  -0.27975  -0.27895  -0.26960  -0.25525
 Alpha  occ. eigenvalues --   -0.25236  -0.24697  -0.23977  -0.23266  -0.22446
 Alpha  occ. eigenvalues --   -0.21996  -0.21383  -0.21046  -0.19997  -0.18045
 Alpha  occ. eigenvalues --   -0.14986  -0.11622  -0.07179   0.03614
 Alpha virt. eigenvalues --    0.05237   0.07093   0.07242   0.08520   0.09430
 Alpha virt. eigenvalues --    0.09827   0.09859   0.10602   0.10890   0.11339
 Alpha virt. eigenvalues --    0.12469   0.12758   0.13139   0.13765   0.13856

  Beta  occ. eigenvalues --  -19.02381 -18.95535 -18.90235 -10.13367 -10.08900
  Beta  occ. eigenvalues --  -10.08702 -10.08140 -10.07423 -10.06623 -10.05716
  Beta  occ. eigenvalues --  -10.05508 -10.05337 -10.04604 -10.01239 -10.00669
  Beta  occ. eigenvalues --   -0.96089  -0.86651  -0.84021  -0.72754  -0.69441
  Beta  occ. eigenvalues --   -0.66031  -0.62660  -0.59648  -0.56516  -0.53076
  Beta  occ. eigenvalues --   -0.51172  -0.48581  -0.44960  -0.41818  -0.40107
  Beta  occ. eigenvalues --   -0.39138  -0.38727  -0.35328  -0.34948  -0.33757
  Beta  occ. eigenvalues --   -0.32576  -0.32223  -0.31649  -0.30113  -0.29288
  Beta  occ. eigenvalues --   -0.28994  -0.27905  -0.27803  -0.26630  -0.25435
  Beta  occ. eigenvalues --   -0.25052  -0.24567  -0.23873  -0.22850  -0.22241
  Beta  occ. eigenvalues --   -0.21407  -0.21045  -0.19804  -0.19297  -0.17025
  Beta  occ. eigenvalues --   -0.14574  -0.09673  -0.06514
  Beta virt. eigenvalues --    0.05199   0.06999   0.07160   0.08410   0.09324
  Beta virt. eigenvalues --    0.09770   0.09809   0.10487   0.10762   0.11072
  Beta virt. eigenvalues --    0.11412   0.12424   0.12680   0.13058   0.13710

 Mulliken charges and spin densities:
               1          2
     1  C   -0.457287  -0.174293
     2  C   -0.251355   0.061144
     3  C   -0.167603  -0.123523
     4  C   -0.177203  -0.016955
     5  C   -0.206687  -0.059948
     6  C   -0.241569  -0.037635
     7  C   -0.222973  -0.111159
     8  C   -0.429645   0.160665
     9  C    0.347606   0.203062
    10  C   -0.119743  -0.187717
    11  C   -0.362651   0.273341
    12  O   -0.393610   0.263743
    13  C   -0.128828   0.107912
    14  O   -0.372100   0.071970
    15  O   -0.135158   0.003177
    16  H    0.123134   0.021525
    17  H    0.091860   0.034744
    18  H    0.092077   0.037007
    19  H    0.138574  -0.002039
    20  H    0.050586   0.086196
    21  H    0.134157   0.011037
    22  H    0.054131   0.085780
    23  H    0.124384   0.050553
    24  H    0.124827   0.011013
    25  H    0.192278  -0.000901
    26  H    0.143472  -0.001473
    27  H    0.176499   0.019495
    28  H    0.092041   0.043107
    29  H    0.150726  -0.006836
    30  H   -0.042974   0.145427
    31  H    0.124556   0.032200
    32  H    0.091411   0.026623
    33  H    0.100692  -0.024376
    34  H    0.126368  -0.001799
    35  H    0.230010  -0.001069
 Sum of Mulliken charges =  -1.00000   1.00000

 Dipole moment (field-independent basis, Debye):
    X=            -12.3999    Y=              1.6085    Z=             -0.8357  Tot=             12.5317
 Quadrupole moment (field-independent basis, Debye-Ang):
   XX=           -190.2539   YY=           -106.0978   ZZ=           -103.0205
   XY=              7.8539   XZ=             -3.0791   YZ=             -1.5593

 Summary of Natural Population Analysis:

                                       Natural Population
                Natural  -----------------------------------------------
    Atom  No    Charge         Core      Valence    Rydberg      Total
 -----------------------------------------------------------------------
      C    1   -0.28814      0.99967     2.28380    0.00467     3.28814
      C    2   -0.19345      0.99964     2.18624    0.00757     3.19345
      C    3   -0.19080      0.99963     2.18323    0.00794     3.19080
      C    4   -0.19362      0.99963     2.18604    0.00795     3.19362
      C    5   -0.19331      0.99963     2.18654    0.00713     3.19331
      C    6   -0.19662      0.99963     2.18878    0.00821     3.19662
      C    7   -0.18349      0.99963     2.17356    0.01030     3.18349
      C    8   -0.20858      0.99962     2.20035    0.00860     3.20858
      C    9    0.00275      0.99954     1.98945    0.00826     2.99725
      C   10   -0.16348      0.99951     2.15278    0.01119     3.16348
      C   11    0.23767      0.99961     1.73968    0.02305     2.76233
      O   12   -0.20714      0.99988     3.20024    0.00702     4.20714
      C   13    0.39380      0.99973     1.57956    0.02691     2.60620
      O   14   -0.31064      0.99987     3.30294    0.00783     4.31064
      O   15   -0.33802      0.99987     3.33014    0.00801     4.33802
      H   16    0.09777      0.00000     0.40111    0.00112     0.40223
      H   17    0.09606      0.00000     0.40289    0.00105     0.40394
      H   18    0.09328      0.00000     0.40549    0.00122     0.40672
      H   19    0.09617      0.00000     0.40243    0.00139     0.40383
      H   20    0.09259      0.00000     0.40605    0.00136     0.40741
      H   21    0.09885      0.00000     0.39985    0.00130     0.40115
      H   22    0.09201      0.00000     0.40669    0.00129     0.40799
      H   23    0.09940      0.00000     0.39906    0.00154     0.40060
      H   24    0.09280      0.00000     0.40593    0.00126     0.40720
      H   25    0.10177      0.00000     0.39711    0.00111     0.39823
      H   26    0.09259      0.00000     0.40632    0.00109     0.40741
      H   27    0.10997      0.00000     0.38894    0.00109     0.39003
      H   28    0.08990      0.00000     0.40874    0.00137     0.41010
      H   29    0.09733      0.00000     0.40149    0.00118     0.40267
      H   30    0.08788      0.00000     0.41059    0.00152     0.41212
      H   31    0.09405      0.00000     0.40403    0.00192     0.40595
      H   32    0.09429      0.00000     0.40385    0.00187     0.40571
      H   33    0.09601      0.00000     0.40267    0.00132     0.40399
      H   34    0.08797      0.00000     0.40948    0.00255     0.41203
      H   35    0.22234      0.00000     0.27156    0.00609     0.27766
 =======================================================================
   * Total *    0.00000     14.99510    42.81761    0.18729    58.00000

 Normal termination of Gaussian 16 at Thu Dec 10 17:41:12 2020.
