 Gaussian 16, Revision A.03,

 -----------------------------------------------------------
 # opt freq B3LYP/6-31G(d) empiricaldispersion=gd3bj scf=xqc
 -----------------------------------------------------------

 -------------------------------
 CID_126514854_JID_3986_neutraal
 -------------------------------
 Symbolic Z-matrix:
 Charge =  0 Multiplicity = 1

 SCF Done:  E(RB3LYP) =  -592.697226127     A.U. after   15 cycles
 SCF Done:  E(RB3LYP) =  -592.703220580     A.U. after   12 cycles
 SCF Done:  E(RB3LYP) =  -592.704053170     A.U. after   12 cycles
 SCF Done:  E(RB3LYP) =  -592.704166809     A.U. after   12 cycles
 SCF Done:  E(RB3LYP) =  -592.704315629     A.U. after   11 cycles
 SCF Done:  E(RB3LYP) =  -592.704386573     A.U. after   11 cycles
 SCF Done:  E(RB3LYP) =  -592.704486300     A.U. after   11 cycles
 SCF Done:  E(RB3LYP) =  -592.704739444     A.U. after   12 cycles
 SCF Done:  E(RB3LYP) =  -592.704915371     A.U. after   12 cycles
 SCF Done:  E(RB3LYP) =  -592.705187283     A.U. after   12 cycles
 SCF Done:  E(RB3LYP) =  -592.708164519     A.U. after   10 cycles
 SCF Done:  E(RB3LYP) =  -592.708178244     A.U. after   11 cycles
 SCF Done:  E(RB3LYP) =  -592.708178615     A.U. after   10 cycles
 SCF Done:  E(RB3LYP) =  -592.708178794     A.U. after   10 cycles
 SCF Done:  E(RB3LYP) =  -592.708179016     A.U. after    9 cycles
 Optimization completed.
    -- Stationary point found.
 Normal termination of Gaussian 16 at Mon Dec 14 16:42:51 2020.

 --------------------------------------------------------------------
 #N Geom=AllCheck Guess=TCheck SCRF=Check GenChk RB3LYP/6-31G(d) Freq
 --------------------------------------------------------------------

 Structure from the checkpoint file:  "JID_3986.chk"
 -------------------------------
 CID_126514854_JID_3986_neutraal
 -------------------------------
 Charge =  0 Multiplicity = 1

 SCF Done:  E(RB3LYP) =  -592.708179016     A.U. after    1 cycles

  Exact polarizability: 137.747  -5.350 125.380   1.316   1.664  86.993
 Approx polarizability: 165.234  -3.350 193.869   6.155   4.327 138.787

                      1                      2                      3
                      A                      A                      A
 Frequencies --     12.1704                63.2770                91.3205
 Red. masses --      3.4985                 3.0751                 4.7336
 Frc consts  --      0.0003                 0.0073                 0.0233
 IR Inten    --      0.1415                 2.5164                 0.9685

                      4                      5                      6
                      A                      A                      A
 Frequencies --    104.0472               154.3248               179.6206
 Red. masses --      2.5952                 3.0628                 2.8974
 Frc consts  --      0.0166                 0.0430                 0.0551
 IR Inten    --      2.1116                 0.3359                 6.2974

                      7                      8                      9
                      A                      A                      A
 Frequencies --    202.2797               208.4355               225.2563
 Red. masses --      1.1944                 1.2198                 2.3320
 Frc consts  --      0.0288                 0.0312                 0.0697
 IR Inten    --      0.7446                 1.1835                 2.7294

                     10                     11                     12
                      A                      A                      A
 Frequencies --    263.5836               293.2641               347.5565
 Red. masses --      2.7246                 2.7690                 3.8553
 Frc consts  --      0.1115                 0.1403                 0.2744
 IR Inten    --      0.1447                 1.8518                 2.7869

                     13                     14                     15
                      A                      A                      A
 Frequencies --    376.4808               404.2087               412.0751
 Red. masses --      2.5582                 1.9192                 2.4321
 Frc consts  --      0.2136                 0.1848                 0.2433
 IR Inten    --      0.2185                11.2684                 7.9205

                     16                     17                     18
                      A                      A                      A
 Frequencies --    428.5520               463.2291               497.6351
 Red. masses --      1.3203                 2.7963                 2.7829
 Frc consts  --      0.1429                 0.3535                 0.4060
 IR Inten    --     86.6672                13.9491                 6.4390

                     19                     20                     21
                      A                      A                      A
 Frequencies --    519.8157               578.2895               597.3115
 Red. masses --      2.5290                 3.3854                 2.9643
 Frc consts  --      0.4026                 0.6670                 0.6231
 IR Inten    --      5.4392                19.2514                 8.3666

                     22                     23                     24
                      A                      A                      A
 Frequencies --    605.2586               649.6016               674.2247
 Red. masses --      3.0633                 3.0380                 3.9061
 Frc consts  --      0.6612                 0.7553                 1.0462
 IR Inten    --     12.0276                 6.0717                30.6708

                     25                     26                     27
                      A                      A                      A
 Frequencies --    726.1501               780.6963               829.2378
 Red. masses --      2.8674                 1.3971                 1.4166
 Frc consts  --      0.8908                 0.5017                 0.5739
 IR Inten    --      1.4830                44.6569               270.4476

                     28                     29                     30
                      A                      A                      A
 Frequencies --    869.4766               924.1101               939.2256
 Red. masses --      1.7965                 2.4181                 2.3210
 Frc consts  --      0.8002                 1.2167                 1.2063
 IR Inten    --     20.4472                 3.3717                 0.6624

                     31                     32                     33
                      A                      A                      A
 Frequencies --    973.9610              1004.3521              1025.9165
 Red. masses --      2.2083                 1.8098                 2.0439
 Frc consts  --      1.2342                 1.0756                 1.2674
 IR Inten    --     27.2759                 7.8988                 9.0280

                     34                     35                     36
                      A                      A                      A
 Frequencies --   1060.7361              1064.0328              1089.1952
 Red. masses --      1.7332                 1.9519                 2.1953
 Frc consts  --      1.1490                 1.3020                 1.5345
 IR Inten    --      2.3568                15.9270                 1.0680

                     37                     38                     39
                      A                      A                      A
 Frequencies --   1091.7131              1115.3594              1161.4180
 Red. masses --      2.1467                 2.1464                 1.4380
 Frc consts  --      1.5075                 1.5733                 1.1428
 IR Inten    --      5.0989                 1.6687                 1.5715

                     40                     41                     42
                      A                      A                      A
 Frequencies --   1169.4899              1187.6755              1217.8391
 Red. masses --      2.1364                 1.7209                 2.4861
 Frc consts  --      1.7216                 1.4302                 2.1725
 IR Inten    --     32.1568                 7.7221                33.9280

                     43                     44                     45
                      A                      A                      A
 Frequencies --   1240.7967              1260.0085              1279.9366
 Red. masses --      1.2249                 1.3842                 2.6432
 Frc consts  --      1.1111                 1.2948                 2.5513
 IR Inten    --     55.5398                 2.9876                49.9697

                     46                     47                     48
                      A                      A                      A
 Frequencies --   1294.6844              1323.3481              1345.4005
 Red. masses --      1.3152                 1.9332                 1.5569
 Frc consts  --      1.2988                 1.9947                 1.6604
 IR Inten    --     42.4668                 7.3080                24.6720

                     49                     50                     51
                      A                      A                      A
 Frequencies --   1391.1311              1398.3162              1413.9238
 Red. masses --      1.5317                 1.3138                 1.2780
 Frc consts  --      1.7465                 1.5135                 1.5054
 IR Inten    --      3.0412                11.0083                 0.4377

                     52                     53                     54
                      A                      A                      A
 Frequencies --   1427.1669              1431.2754              1462.4787
 Red. masses --      1.8242                 1.6242                 1.9741
 Frc consts  --      2.1892                 1.9603                 2.4878
 IR Inten    --     30.1079                 3.5729               160.5230

                     55                     56                     57
                      A                      A                      A
 Frequencies --   1466.1241              1477.0895              1498.3680
 Red. masses --      1.5545                 1.1689                 1.1028
 Frc consts  --      1.9687                 1.5026                 1.4588
 IR Inten    --     91.6017                 1.8082                 3.0314

                     58                     59                     60
                      A                      A                      A
 Frequencies --   1501.7126              1513.8017              1521.1158
 Red. masses --      1.0729                 1.0933                 1.0517
 Frc consts  --      1.4255                 1.4761                 1.4337
 IR Inten    --      7.2168                 0.8242                 9.4508

                     61                     62                     63
                      A                      A                      A
 Frequencies --   1522.8146              1537.0018              1546.9454
 Red. masses --      1.0596                 1.0847                 1.0586
 Frc consts  --      1.4477                 1.5098                 1.4925
 IR Inten    --      8.0694                 9.2451                 2.7533

                     64                     65                     66
                      A                      A                      A
 Frequencies --   1548.5408              1648.0068              1744.0486
 Red. masses --      1.0803                 1.1661                 5.6997
 Frc consts  --      1.5263                 1.8660                10.2146
 IR Inten    --      2.1961                58.8393                53.8515

                     67                     68                     69
                      A                      A                      A
 Frequencies --   1759.3796              2983.7116              3001.7190
 Red. masses --      9.7859                 1.0560                 1.0683
 Frc consts  --     17.8472                 5.5389                 5.6716
 IR Inten    --    304.7068                68.3615                53.0064

                     70                     71                     72
                      A                      A                      A
 Frequencies --   3011.2747              3048.8717              3051.0202
 Red. masses --      1.0709                 1.0722                 1.0881
 Frc consts  --      5.7212                 5.8724                 5.9675
 IR Inten    --     42.5355                 3.7993                12.7798

                     73                     74                     75
                      A                      A                      A
 Frequencies --   3055.9190              3062.9523              3079.6911
 Red. masses --      1.0397                 1.0816                 1.0746
 Frc consts  --      5.7209                 5.9784                 6.0049
 IR Inten    --      5.6516                45.1289                50.4132

                     76                     77                     78
                      A                      A                      A
 Frequencies --   3080.3511              3092.2575              3115.9398
 Red. masses --      1.0770                 1.1028                 1.1012
 Frc consts  --      6.0210                 6.2129                 6.2992
 IR Inten    --     48.1182                34.5481                13.7039

                     79                     80                     81
                      A                      A                      A
 Frequencies --   3123.6101              3158.2208              3176.1908
 Red. masses --      1.1043                 1.0919                 1.0993
 Frc consts  --      6.3480                 6.4166                 6.5340
 IR Inten    --     32.6446                19.7285                 8.3305

                     82                     83                     84
                      A                      A                      A
 Frequencies --   3455.2044              3493.2940              3601.9755
 Red. masses --      1.0731                 1.0469                 1.0967
 Frc consts  --      7.5484                 7.5274                 8.3837
 IR Inten    --      2.3206                18.2945                10.8171

 - Thermochemistry -
 -------------------
 Temperature   298.150 Kelvin.  Pressure   1.00000 Atm.
 Atom     1 has atomic number  6 and mass  12.00000

 Molecular mass:   183.13716 amu.
 Principal axes and moments of inertia in atomic units:
                           1         2         3
     Eigenvalues --  1179.180933918.389084614.60397
           X            0.99960  -0.02821  -0.00246
           Y            0.02820   0.99960  -0.00160
           Z            0.00251   0.00153   1.00000
 This molecule is an asymmetric top.
 Rotational symmetry number  1.
 Warning -- assumption of classical behavior for rotation
           may cause significant error
 Rotational temperatures (Kelvin)      0.07345     0.02210     0.01877
 Rotational constants (GHZ):           1.53050     0.46058     0.39109
 Zero-point vibrational energy     698188.6 (Joules/Mol)
                                  166.87109 (Kcal/Mol)
 Warning -- explicit consideration of  22 degrees of freedom as
           vibrations may cause significant error
 Vibrational temperatures:     17.51    91.04   131.39   149.70   222.04
          (Kelvin)            258.43   291.04   299.89   324.09   379.24
                              421.94   500.06   541.67   581.57   592.88
                              616.59   666.48   715.99   747.90   832.03
                              859.40   870.83   934.63   970.06  1044.77
                             1123.25  1193.09  1250.98  1329.59  1351.34
                             1401.31  1445.04  1476.07  1526.16  1530.91
                             1567.11  1570.73  1604.75  1671.02  1682.64
                             1708.80  1752.20  1785.23  1812.87  1841.54
                             1862.76  1904.00  1935.73  2001.53  2011.87
                             2034.32  2053.37  2059.29  2104.18  2109.43
                             2125.20  2155.82  2160.63  2178.02  2188.55
                             2190.99  2211.40  2225.71  2228.00  2371.11
                             2509.30  2531.35  4292.90  4318.80  4332.55
                             4386.65  4389.74  4396.79  4406.91  4430.99
                             4431.94  4449.07  4483.14  4494.18  4543.98
                             4569.83  4971.27  5026.07  5182.44

 Zero-point correction=                           0.265926 (Hartree/Particle)
 Thermal correction to Energy=                    0.279626
 Thermal correction to Enthalpy=                  0.280571
 Thermal correction to Gibbs Free Energy=         0.224776
 Sum of electronic and zero-point Energies=           -592.442253
 Sum of electronic and thermal Energies=              -592.428553
 Sum of electronic and thermal Enthalpies=            -592.427608
 Sum of electronic and thermal Free Energies=         -592.483403

                     E (Thermal)             CV                S
                      KCal/Mol        Cal/Mol-Kelvin    Cal/Mol-Kelvin
 Total                  175.468             51.960            117.429
 Electronic               0.000              0.000              0.000
 Translational            0.889              2.981             41.522
 Rotational               0.889              2.981             31.434
 Vibrational            173.691             45.999             44.474
 Vibration     1          0.593              1.987              7.621
 Vibration     2          0.597              1.972              4.352
 Vibration     3          0.602              1.955              3.632
 Vibration     4          0.605              1.946              3.377
 Vibration     5          0.620              1.898              2.618
 Vibration     6          0.629              1.867              2.332
 Vibration     7          0.639              1.837              2.112
 Vibration     8          0.642              1.828              2.057
 Vibration     9          0.650              1.803              1.916
 Vibration    10          0.670              1.740              1.638
 Vibration    11          0.688              1.686              1.455
 Vibration    12          0.725              1.580              1.177
 Vibration    13          0.747              1.520              1.053
 Vibration    14          0.769              1.461              0.947
 Vibration    15          0.776              1.444              0.919
 Vibration    16          0.790              1.408              0.863
 Vibration    17          0.821              1.332              0.757
 Vibration    18          0.853              1.255              0.664
 Vibration    19          0.875              1.206              0.610
 Vibration    20          0.935              1.078              0.489
 Vibration    21          0.955              1.038              0.454
 Vibration    22          0.964              1.021              0.441

 Optimization completed.
    -- Stationary point found.
 Normal termination of Gaussian 16 at Mon Dec 14 16:50:35 2020.

 ----------------------------------------------------------------------
 # B3LYP/6-311++G(d,p) empiricaldispersion=gd3bj scf=xqc pop=npa geom=c
 heck
 ----------------------------------------------------------------------

 ---------------------------------------
 CID_126514854_JID_3986_Energie_neutraal
 ---------------------------------------
 Structure from the checkpoint file:  "JID_3986.chk"
 Charge =  0 Multiplicity = 1

 SCF Done:  E(RB3LYP) =  -592.887061297     A.U. after   15 cycles
 Normal termination of Gaussian 16 at Mon Dec 14 16:54:23 2020.

 ----------------------------------------------------------------------
 # B3LYP/6-311++G(d,p) empiricaldispersion=gd3bj scf=xqc pop=npa geom=c
 heck
 ----------------------------------------------------------------------

 -------------------------------------
 CID_126514854_JID_3986_Energie_kation
 -------------------------------------
 Structure from the checkpoint file:  "JID_3986.chk"
 Charge =  1 Multiplicity = 2

 SCF Done:  E(UB3LYP) =  -592.608845822     A.U. after   29 cycles
 Normal termination of Gaussian 16 at Mon Dec 14 17:04:18 2020.
 Gaussian 16:  ES64L-G16RevA.03 25-Dec-2016

 ----------------------------------------------------------------------
 # B3LYP/6-311++G(d,p) empiricaldispersion=gd3bj scf=xqc pop=npa geom=c
 heck
 ----------------------------------------------------------------------

 ------------------------------------
 CID_126514854_JID_3986_Energie_anion
 ------------------------------------
 Structure from the checkpoint file:  "JID_3986.chk"
 Charge = -1 Multiplicity = 2

                         Standard orientation:
 ---------------------------------------------------------------------
 Center     Atomic      Atomic             Coordinates (Angstroms)
 Number     Number       Type             X           Y           Z
 ---------------------------------------------------------------------
      1          6           0       -3.775273    0.743465    0.226443
      2          6           0       -2.822477   -0.371675   -0.187356
      3          8           0       -3.199192   -1.283131   -0.919118
      4          7           0       -1.535289   -0.337604    0.287575
      5          6           0       -0.972930    0.770795    1.041374
      6          6           0       -0.075376    1.686809    0.205649
      7          6           0        1.251829    1.109063   -0.222010
      8          6           0        1.636784   -0.182373   -0.096778
      9          6           0        0.768301   -1.341160    0.365840
     10          6           0       -0.647222   -1.397294   -0.209436
     11          7           0        2.994832   -0.480443   -0.493756
     12          6           0        3.814615   -1.062281    0.571062
     13          7           0        2.080685    2.046630   -0.845569
     14          1           0       -4.735379    0.537273   -0.247283
     15          1           0       -3.422301    1.728203   -0.100171
     16          1           0       -3.916841    0.780734    1.312538
     17          1           0       -0.410451    0.385039    1.898255
     18          1           0       -1.792732    1.357295    1.454719
     19          1           0       -0.625841    2.031218   -0.680606
     20          1           0        0.131534    2.590655    0.801146
     21          1           0        1.257152   -2.263439    0.026517
     22          1           0        0.730732   -1.433849    1.461512
     23          1           0       -0.600010   -1.338522   -1.303574
     24          1           0       -1.109357   -2.360791    0.029110
     25          1           0        2.996763   -1.106266   -1.299256
     26          1           0        3.419050   -2.001341    0.994284
     27          1           0        4.820217   -1.261043    0.184935
     28          1           0        3.898218   -0.337739    1.387730
     29          1           0        3.015452    1.664936   -0.968507
     30          1           0        2.086237    2.960511   -0.404880
 ---------------------------------------------------------------------

 SCF Done:  E(UB3LYP) =  -592.877082334     A.U. after   33 cycles
 SCF Done:  E(UB3LYP) =  -592.877082334     a.u. after    1 cycles

 The electronic state is 2-A.
 Alpha  occ. eigenvalues --  -18.98530 -14.24056 -14.20279 -14.20126 -10.17090
 Alpha  occ. eigenvalues --  -10.10927 -10.10242 -10.10058 -10.08666 -10.07863
 Alpha  occ. eigenvalues --  -10.07806 -10.07715 -10.07690  -0.93835  -0.83973
 Alpha  occ. eigenvalues --   -0.82214  -0.78679  -0.68503  -0.67842  -0.64168
 Alpha  occ. eigenvalues --   -0.59947  -0.57445  -0.54648  -0.52067  -0.45118
 Alpha  occ. eigenvalues --   -0.43391  -0.40728  -0.40084  -0.39446  -0.38720
 Alpha  occ. eigenvalues --   -0.36226  -0.35801  -0.33775  -0.32996  -0.32217
 Alpha  occ. eigenvalues --   -0.31482  -0.30808  -0.30474  -0.29745  -0.28384
 Alpha  occ. eigenvalues --   -0.27698  -0.27242  -0.26516  -0.25139  -0.24375
 Alpha  occ. eigenvalues --   -0.20975  -0.15749  -0.14415  -0.13687  -0.10078
 Alpha  occ. eigenvalues --    0.04124
 Alpha virt. eigenvalues --    0.06107   0.07077   0.07899   0.08452   0.09099
 Alpha virt. eigenvalues --    0.09377   0.10168   0.10684   0.11147   0.11328
 Alpha virt. eigenvalues --    0.11867   0.12639   0.13221   0.13402   0.13757

  Beta  occ. eigenvalues --  -18.98524 -14.24058 -14.20265 -14.20100 -10.17087
  Beta  occ. eigenvalues --  -10.10902 -10.10235 -10.10052 -10.08627 -10.07834
  Beta  occ. eigenvalues --  -10.07804 -10.07696 -10.07657  -0.93824  -0.83958
  Beta  occ. eigenvalues --   -0.82187  -0.78643  -0.68478  -0.67796  -0.64128
  Beta  occ. eigenvalues --   -0.59901  -0.57381  -0.54582  -0.52017  -0.45087
  Beta  occ. eigenvalues --   -0.43339  -0.40693  -0.40041  -0.39415  -0.38681
  Beta  occ. eigenvalues --   -0.36191  -0.35762  -0.33739  -0.32962  -0.32173
  Beta  occ. eigenvalues --   -0.31449  -0.30768  -0.30435  -0.29711  -0.28344
  Beta  occ. eigenvalues --   -0.27658  -0.27210  -0.26485  -0.25112  -0.24341
  Beta  occ. eigenvalues --   -0.20939  -0.15732  -0.14400  -0.13660  -0.10053
  Beta virt. eigenvalues --    0.06448   0.07081   0.07861   0.08431   0.08857
  Beta virt. eigenvalues --    0.09607   0.09967   0.10487   0.11010   0.11277
  Beta virt. eigenvalues --    0.11497   0.12280   0.12880   0.13599   0.13616

 Mulliken charges and spin densities:
               1          2
     1  C    0.836394  -1.437643
     2  C   -0.381245   0.566953
     3  O   -0.354664   0.006407
     4  N    0.074945   0.052430
     5  C   -0.719703   0.181556
     6  C   -0.206521   0.221197
     7  C   -1.021209   0.928247
     8  C    1.479770  -1.867371
     9  C    0.428014  -0.599018
    10  C    0.574881  -1.111180
    11  N   -0.318526   0.157679
    12  C    0.762132  -1.110960
    13  N   -0.388646   0.063959
    14  H    0.207133  -0.034452
    15  H   -0.191362   0.348983
    16  H   -0.209974   0.379687
    17  H   -0.357144   0.528731
    18  H   -0.355560   0.568764
    19  H    0.037252   0.153103
    20  H   -0.578423   0.739263
    21  H    0.063828   0.080291
    22  H    0.155068   0.048387
    23  H    0.147381   0.069615
    24  H    0.086353   0.102852
    25  H    0.066045   0.187581
    26  H   -0.318099   0.447156
    27  H   -0.438449   0.572234
    28  H   -0.147637   0.304788
    29  H    0.166296   0.120624
    30  H   -0.098331   0.330141
 Sum of Mulliken charges =  -1.00000   1.00000

 Dipole moment (field-independent basis, Debye):
    X=             -1.6202    Y=             -2.1209    Z=             -1.5936  Tot=              3.1085
 Quadrupole moment (field-independent basis, Debye-Ang):
   XX=           -152.8169   YY=           -127.7356   ZZ=           -114.8040
   XY=              0.2153   XZ=             -3.1626   YZ=             -7.3249

 Summary of Natural Population Analysis:

                                       Natural Population
                Natural  -----------------------------------------------
    Atom  No    Charge         Core      Valence    Rydberg      Total
 -----------------------------------------------------------------------
      C    1   -0.33226      0.99963     2.32756    0.00507     3.33226
      C    2    0.34325      0.99966     1.63468    0.02240     2.65675
      O    3   -0.33105      0.99988     3.32550    0.00567     4.33105
      N    4   -0.25520      0.99963     2.74541    0.01016     3.75520
      C    5   -0.08486      0.99960     2.07351    0.01174     3.08486
      C    6   -0.20715      0.99958     2.19768    0.00989     3.20715
      C    7    0.09428      0.99941     1.89427    0.01203     2.90572
      C    8    0.02373      0.99940     1.96252    0.01435     2.97627
      C    9   -0.21559      0.99959     2.20645    0.00955     3.21559
      C   10   -0.07752      0.99961     2.06804    0.00987     3.07752
      N   11   -0.34874      0.99973     2.83582    0.01319     3.84874
      C   12   -0.17438      0.99965     2.16773    0.00701     3.17438
      N   13   -0.40586      0.99971     2.89589    0.01025     3.90586
      H   14    0.11110      0.00000     0.38809    0.00081     0.38890
      H   15    0.10907      0.00000     0.38984    0.00110     0.39093
      H   16    0.10889      0.00000     0.39005    0.00107     0.39111
      H   17    0.09993      0.00000     0.39826    0.00181     0.40007
      H   18    0.10783      0.00000     0.38997    0.00221     0.39217
      H   19    0.10381      0.00000     0.39473    0.00146     0.39619
      H   20    0.10782      0.00000     0.38817    0.00401     0.39218
      H   21    0.10694      0.00000     0.39210    0.00097     0.39306
      H   22    0.10143      0.00000     0.39703    0.00154     0.39857
      H   23    0.09750      0.00000     0.40113    0.00137     0.40250
      H   24    0.10097      0.00000     0.39777    0.00125     0.39903
      H   25    0.17214      0.00000     0.32489    0.00297     0.32786
      H   26    0.07887      0.00000     0.41899    0.00215     0.42113
      H   27    0.09282      0.00000     0.40553    0.00165     0.40718
      H   28    0.09424      0.00000     0.40399    0.00176     0.40576
      H   29    0.19594      0.00000     0.30191    0.00216     0.30406
      H   30    0.18204      0.00000     0.31571    0.00224     0.31796
 =======================================================================
   * Total *    0.00000     12.99509    36.83321    0.17170    50.00000

 Normal termination of Gaussian 16 at Mon Dec 14 17:15:32 2020.
