 Gaussian 16, Revision A.03,

 -----------------------------------------------------------
 # opt freq B3LYP/6-31G(d) empiricaldispersion=gd3bj scf=xqc
 -----------------------------------------------------------

 -------------------------------
 CID_108570054_JID_9982_neutraal
 -------------------------------
 Symbolic Z-matrix:
 Charge =  0 Multiplicity = 1

 SCF Done:  E(RB3LYP) =  -956.209235989     A.U. after   15 cycles
 SCF Done:  E(RB3LYP) =  -956.215026818     A.U. after   13 cycles
 SCF Done:  E(RB3LYP) =  -956.214813090     A.U. after   12 cycles
 SCF Done:  E(RB3LYP) =  -956.215943131     A.U. after   12 cycles
 SCF Done:  E(RB3LYP) =  -956.216325489     A.U. after   11 cycles
 SCF Done:  E(RB3LYP) =  -956.216395764     A.U. after   11 cycles
 SCF Done:  E(RB3LYP) =  -956.216468663     A.U. after   11 cycles
 SCF Done:  E(RB3LYP) =  -956.216505890     A.U. after   11 cycles
 SCF Done:  E(RB3LYP) =  -956.216545117     A.U. after   11 cycles
 SCF Done:  E(RB3LYP) =  -956.216566358     A.U. after   11 cycles
 SCF Done:  E(RB3LYP) =  -956.216644114     A.U. after   10 cycles
 SCF Done:  E(RB3LYP) =  -956.216645112     A.U. after    9 cycles
 SCF Done:  E(RB3LYP) =  -956.216645318     A.U. after    9 cycles
 SCF Done:  E(RB3LYP) =  -956.216645353     A.U. after    8 cycles
 SCF Done:  E(RB3LYP) =  -956.216645354     A.U. after    7 cycles
 Optimization completed.
    -- Stationary point found.
 Normal termination of Gaussian 16 at Mon Dec 14 13:40:38 2020.

 --------------------------------------------------------------------
 #N Geom=AllCheck Guess=TCheck SCRF=Check GenChk RB3LYP/6-31G(d) Freq
 --------------------------------------------------------------------

 Structure from the checkpoint file:  "JID_9982.chk"
 -------------------------------
 CID_108570054_JID_9982_neutraal
 -------------------------------
 Charge =  0 Multiplicity = 1

 SCF Done:  E(RB3LYP) =  -956.216645354     A.U. after    1 cycles

  Exact polarizability: 200.952  12.312 143.607  -7.586   2.244 123.282
 Approx polarizability: 229.696  18.057 218.034 -15.344  10.429 187.615

                      1                      2                      3
                      A                      A                      A
 Frequencies --      7.9607                16.0775                32.5541
 Red. masses --      4.2332                 4.3169                 4.7009
 Frc consts  --      0.0002                 0.0007                 0.0029
 IR Inten    --      0.1353                 0.0888                 0.2222

                      4                      5                      6
                      A                      A                      A
 Frequencies --     46.3154                51.2479                68.9830
 Red. masses --      3.6053                 6.5545                 3.2234
 Frc consts  --      0.0046                 0.0101                 0.0090
 IR Inten    --      0.8959                 3.1202                 0.4999

                      7                      8                      9
                      A                      A                      A
 Frequencies --     78.2243                87.6866                90.4706
 Red. masses --      3.7818                 4.0648                 2.8928
 Frc consts  --      0.0136                 0.0184                 0.0140
 IR Inten    --      2.5770                 1.0697                 2.5252

                     10                     11                     12
                      A                      A                      A
 Frequencies --    104.0159               123.5931               145.0862
 Red. masses --      3.6686                 4.8708                 2.7483
 Frc consts  --      0.0234                 0.0438                 0.0341
 IR Inten    --      1.3989                 0.5280                 8.0093

                     13                     14                     15
                      A                      A                      A
 Frequencies --    186.8045               218.8373               242.5343
 Red. masses --      3.0895                 1.4559                 1.3853
 Frc consts  --      0.0635                 0.0411                 0.0480
 IR Inten    --      2.7061                 3.4209                 5.2418

                     16                     17                     18
                      A                      A                      A
 Frequencies --    270.8008               272.3717               319.0343
 Red. masses --      2.6041                 1.9997                 2.6521
 Frc consts  --      0.1125                 0.0874                 0.1590
 IR Inten    --      4.6115                 3.8175                 5.6918

                     19                     20                     21
                      A                      A                      A
 Frequencies --    326.7942               335.7593               373.3234
 Red. masses --      3.3976                 2.3514                 3.2309
 Frc consts  --      0.2138                 0.1562                 0.2653
 IR Inten    --      2.2748                11.1753                 9.7642

                     22                     23                     24
                      A                      A                      A
 Frequencies --    380.7795               401.2796               425.3449
 Red. masses --      3.3490                 2.5878                 2.8025
 Frc consts  --      0.2861                 0.2455                 0.2987
 IR Inten    --     11.9665                 4.5572                 8.9665

                     25                     26                     27
                      A                      A                      A
 Frequencies --    453.9518               466.4974               496.2659
 Red. masses --      2.2722                 2.9184                 4.1794
 Frc consts  --      0.2759                 0.3742                 0.6065
 IR Inten    --      0.7558                 5.0229                 5.0674

                     28                     29                     30
                      A                      A                      A
 Frequencies --    527.4651               548.8503               566.9168
 Red. masses --      3.4177                 2.3820                 4.0931
 Frc consts  --      0.5602                 0.4228                 0.7751
 IR Inten    --      1.4726                10.4701                14.5621

                     31                     32                     33
                      A                      A                      A
 Frequencies --    580.4390               638.9927               686.2491
 Red. masses --      3.8291                 2.3131                 5.4369
 Frc consts  --      0.7601                 0.5565                 1.5086
 IR Inten    --      7.0294                 7.0937                14.8278

                     34                     35                     36
                      A                      A                      A
 Frequencies --    719.8158               753.3514               784.7556
 Red. masses --      3.3619                10.6991                 1.7552
 Frc consts  --      1.0263                 3.5776                 0.6368
 IR Inten    --     29.3112                19.0090                10.0215

                     37                     38                     39
                      A                      A                      A
 Frequencies --    841.4058               852.6355               861.3102
 Red. masses --      1.9117                 2.6844                 1.6011
 Frc consts  --      0.7974                 1.1498                 0.6998
 IR Inten    --      3.1510                13.9450                 0.3775

                     40                     41                     42
                      A                      A                      A
 Frequencies --    887.9568               891.4317               939.0100
 Red. masses --      2.3765                 2.8018                 2.6921
 Frc consts  --      1.1040                 1.3118                 1.3986
 IR Inten    --     16.4417                 1.3420                19.0218

                     43                     44                     45
                      A                      A                      A
 Frequencies --    956.7337              1004.5013              1012.5364
 Red. masses --      2.5171                 2.8417                 2.6232
 Frc consts  --      1.3575                 1.6894                 1.5845
 IR Inten    --      0.2493                50.9254                34.1612

                     46                     47                     48
                      A                      A                      A
 Frequencies --   1033.3800              1043.3540              1052.6056
 Red. masses --      2.3531                 2.7140                 2.5995
 Frc consts  --      1.4805                 1.7407                 1.6970
 IR Inten    --     43.2701                 0.7500                54.9296

                     49                     50                     51
                      A                      A                      A
 Frequencies --   1068.0676              1084.2308              1103.7418
 Red. masses --      2.3510                 1.7838                 2.8844
 Frc consts  --      1.5801                 1.2355                 2.0703
 IR Inten    --     30.8180                12.3077                62.9125

                     52                     53                     54
                      A                      A                      A
 Frequencies --   1130.8730              1135.4158              1150.9762
 Red. masses --      2.1243                 2.0429                 3.5026
 Frc consts  --      1.6007                 1.5517                 2.7338
 IR Inten    --     80.8564                35.7577               169.6045

                     55                     56                     57
                      A                      A                      A
 Frequencies --   1167.5135              1180.1133              1196.2411
 Red. masses --      2.8538                 4.1087                 1.3619
 Frc consts  --      2.2919                 3.3714                 1.1482
 IR Inten    --    122.3393                71.7254                 9.6254

                     58                     59                     60
                      A                      A                      A
 Frequencies --   1205.4677              1213.1124              1234.5291
 Red. masses --      2.2428                 2.1778                 1.5993
 Frc consts  --      1.9202                 1.8883                 1.4361
 IR Inten    --     14.0333                46.9132                12.1176

                     61                     62                     63
                      A                      A                      A
 Frequencies --   1241.0411              1254.3255              1276.5300
 Red. masses --      1.6880                 1.5990                 1.2757
 Frc consts  --      1.5317                 1.4823                 1.2248
 IR Inten    --     15.6529               311.5409                43.2999

                     64                     65                     66
                      A                      A                      A
 Frequencies --   1287.6396              1291.8529              1312.5263
 Red. masses --      1.4506                 2.2760                 1.2205
 Frc consts  --      1.4170                 2.2379                 1.2388
 IR Inten    --     88.0717               146.5563                17.6736

                     67                     68                     69
                      A                      A                      A
 Frequencies --   1324.6234              1345.8562              1352.5400
 Red. masses --      1.6367                 1.1139                 1.1558
 Frc consts  --      1.6921                 1.1887                 1.2457
 IR Inten    --     61.3477                14.0511                 2.8886

                     70                     71                     72
                      A                      A                      A
 Frequencies --   1370.9090              1386.7429              1397.7897
 Red. masses --      1.2700                 1.2553                 1.2586
 Frc consts  --      1.4062                 1.4223                 1.4488
 IR Inten    --      4.1192                 9.8600                10.5755

                     73                     74                     75
                      A                      A                      A
 Frequencies --   1408.3988              1417.2921              1420.5888
 Red. masses --      1.3003                 1.3327                 1.4116
 Frc consts  --      1.5197                 1.5772                 1.6785
 IR Inten    --      9.6110                 2.9011                 2.9334

                     76                     77                     78
                      A                      A                      A
 Frequencies --   1425.4105              1441.0387              1447.6728
 Red. masses --      1.2749                 1.3198                 1.4439
 Frc consts  --      1.5261                 1.6148                 1.7830
 IR Inten    --     27.5538                44.7595                 5.7428

                     79                     80                     81
                      A                      A                      A
 Frequencies --   1474.0821              1481.2302              1500.8153
 Red. masses --      2.2963                 2.2250                 1.1546
 Frc consts  --      2.9398                 2.8763                 1.5323
 IR Inten    --     92.1783               239.0627                 6.0420

                     82                     83                     84
                      A                      A                      A
 Frequencies --   1503.6698              1507.8929              1508.6218
 Red. masses --      1.1803                 1.0817                 1.0907
 Frc consts  --      1.5723                 1.4491                 1.4626
 IR Inten    --     32.3484                 5.5755                14.7047

                     85                     86                     87
                      A                      A                      A
 Frequencies --   1513.8027              1515.4675              1517.2254
 Red. masses --      1.0766                 1.0489                 1.0643
 Frc consts  --      1.4536                 1.4193                 1.4434
 IR Inten    --     13.3049                 5.0320                 4.5977

                     88                     89                     90
                      A                      A                      A
 Frequencies --   1519.5111              1525.0917              1527.6583
 Red. masses --      1.0926                 1.2065                 1.0680
 Frc consts  --      1.4864                 1.6534                 1.4684
 IR Inten    --      8.9380                89.5033                12.0988

                     91                     92                     93
                      A                      A                      A
 Frequencies --   1535.0853              1540.1884              1550.0479
 Red. masses --      1.1070                 1.0759                 1.0940
 Frc consts  --      1.5369                 1.5037                 1.5486
 IR Inten    --      0.3532                26.6110                 0.4060

                     94                     95                     96
                      A                      A                      A
 Frequencies --   1756.5201              1794.4764              2968.0705
 Red. masses --     10.3123                10.6152                 1.0592
 Frc consts  --     18.7462                20.1398                 5.4978
 IR Inten    --    286.3467               403.0104                45.6358

                     97                     98                     99
                      A                      A                      A
 Frequencies --   2993.7221              3011.6174              3028.2491
 Red. masses --      1.0401                 1.0963                 1.0732
 Frc consts  --      5.4920                 5.8585                 5.7985
 IR Inten    --     90.1951                43.1910                19.1434

                    100                    101                    102
                      A                      A                      A
 Frequencies --   3037.8317              3045.4600              3046.1451
 Red. masses --      1.1051                 1.0681                 1.0687
 Frc consts  --      6.0084                 5.8368                 5.8424
 IR Inten    --     63.2720                15.0901                30.5837

                    103                    104                    105
                      A                      A                      A
 Frequencies --   3047.2315              3059.3831              3060.8085
 Red. masses --      1.0712                 1.0364                 1.0703
 Frc consts  --      5.8605                 5.7154                 5.9079
 IR Inten    --     42.2989                19.9202                74.0322

                    106                    107                    108
                      A                      A                      A
 Frequencies --   3067.4834              3093.7605              3103.1638
 Red. masses --      1.0656                 1.0596                 1.1041
 Frc consts  --      5.9078                 5.9752                 6.2644
 IR Inten    --     25.0539                34.0626                30.9744

                    109                    110                    111
                      A                      A                      A
 Frequencies --   3123.7398              3141.1101              3145.1128
 Red. masses --      1.1022                 1.1030                 1.0968
 Frc consts  --      6.3365                 6.4122                 6.3922
 IR Inten    --     28.8816                10.5838                24.8213

                    112                    113                    114
                      A                      A                      A
 Frequencies --   3151.1595              3159.2603              3170.5549
 Red. masses --      1.0996                 1.1071                 1.0955
 Frc consts  --      6.4330                 6.5104                 6.4883
 IR Inten    --      3.4997                26.6157                 2.2356

                    115                    116                    117
                      A                      A                      A
 Frequencies --   3171.7096              3183.6044              3189.4001
 Red. masses --      1.0939                 1.0920                 1.0914
 Frc consts  --      6.4835                 6.5209                 6.5409
 IR Inten    --      2.7916                 3.4615                 5.4759

 - Thermochemistry -
 -------------------
 Temperature   298.150 Kelvin.  Pressure   1.00000 Atm.
 Atom     1 has atomic number  6 and mass  12.00000

 Molecular mass:   274.15287 amu.
 Principal axes and moments of inertia in atomic units:
                           1         2         3
     Eigenvalues --  1867.42791********************
           X            0.99999   0.00294  -0.00173
           Y           -0.00298   0.99975  -0.02236
           Z            0.00166   0.02237   0.99975
 This molecule is an asymmetric top.
 Rotational symmetry number  1.
 Warning -- assumption of classical behavior for rotation
           may cause significant error
 Rotational temperatures (Kelvin)      0.04638     0.00653     0.00609
 Rotational constants (GHZ):           0.96643     0.13611     0.12690
 Zero-point vibrational energy     931587.8 (Joules/Mol)
                                  222.65483 (Kcal/Mol)
 Warning -- explicit consideration of  31 degrees of freedom as
           vibrations may cause significant error
 Vibrational temperatures:     11.45    23.13    46.84    66.64    73.73
          (Kelvin)             99.25   112.55   126.16   130.17   149.66
                              177.82   208.75   268.77   314.86   348.95
                              389.62   391.88   459.02   470.18   483.08
                              537.13   547.86   577.35   611.98   653.14
                              671.19   714.02   758.90   789.67   815.67
                              835.12   919.37   987.36  1035.65  1083.90
                             1129.09  1210.60  1226.75  1239.23  1277.57
                             1282.57  1351.03  1376.53  1445.25  1456.81
                             1486.80  1501.15  1514.46  1536.71  1559.97
                             1588.04  1627.07  1633.61  1656.00  1679.79
                             1697.92  1721.12  1734.40  1745.40  1776.21
                             1785.58  1804.69  1836.64  1852.63  1858.69
                             1888.43  1905.84  1936.39  1946.00  1972.43
                             1995.21  2011.11  2026.37  2039.17  2043.91
                             2050.85  2073.33  2082.88  2120.88  2131.16
                             2159.34  2163.45  2169.52  2170.57  2178.02
                             2180.42  2182.95  2186.24  2194.27  2197.96
                             2208.65  2215.99  2230.17  2527.24  2581.85
                             4270.39  4307.30  4333.05  4356.97  4370.76
                             4381.74  4382.72  4384.29  4401.77  4403.82
                             4413.42  4451.23  4464.76  4494.36  4519.36
                             4525.12  4533.82  4545.47  4561.72  4563.38
                             4580.50  4588.84

 Zero-point correction=                           0.354823 (Hartree/Particle)
 Thermal correction to Energy=                    0.375201
 Thermal correction to Enthalpy=                  0.376146
 Thermal correction to Gibbs Free Energy=         0.301129
 Sum of electronic and zero-point Energies=           -955.861822
 Sum of electronic and thermal Energies=              -955.841444
 Sum of electronic and thermal Enthalpies=            -955.840500
 Sum of electronic and thermal Free Energies=         -955.915516

                     E (Thermal)             CV                S
                      KCal/Mol        Cal/Mol-Kelvin    Cal/Mol-Kelvin
 Total                  235.442             73.225            157.885
 Electronic               0.000              0.000              0.000
 Translational            0.889              2.981             42.724
 Rotational               0.889              2.981             34.220
 Vibrational            233.665             67.263             80.940
 Vibration     1          0.593              1.987              8.464
 Vibration     2          0.593              1.986              7.068
 Vibration     3          0.594              1.983              5.667
 Vibration     4          0.595              1.979              4.969
 Vibration     5          0.596              1.977              4.769
 Vibration     6          0.598              1.969              4.182
 Vibration     7          0.600              1.964              3.935
 Vibration     8          0.601              1.958              3.711
 Vibration     9          0.602              1.956              3.650
 Vibration    10          0.605              1.946              3.378
 Vibration    11          0.610              1.929              3.043
 Vibration    12          0.616              1.908              2.736
 Vibration    13          0.632              1.858              2.259
 Vibration    14          0.647              1.812              1.969
 Vibration    15          0.659              1.775              1.784
 Vibration    16          0.674              1.727              1.591
 Vibration    17          0.675              1.724              1.581
 Vibration    18          0.705              1.637              1.315
 Vibration    19          0.710              1.622              1.276
 Vibration    20          0.717              1.604              1.232
 Vibration    21          0.745              1.527              1.066
 Vibration    22          0.751              1.511              1.036
 Vibration    23          0.767              1.467              0.958
 Vibration    24          0.787              1.415              0.874
 Vibration    25          0.812              1.352              0.784
 Vibration    26          0.824              1.324              0.747
 Vibration    27          0.852              1.258              0.668
 Vibration    28          0.882              1.189              0.593
 Vibration    29          0.904              1.142              0.547
 Vibration    30          0.923              1.103              0.510
 Vibration    31          0.937              1.074              0.485

                           ! Non-Optimized Parameters !
 Normal termination of Gaussian 16 at Mon Dec 14 14:00:35 2020.

 ----------------------------------------------------------------------
 # B3LYP/6-311++G(d,p) empiricaldispersion=gd3bj scf=xqc pop=npa geom=c
 heck
 ----------------------------------------------------------------------

 ---------------------------------------
 CID_108570054_JID_9982_Energie_neutraal
 ---------------------------------------
 Structure from the checkpoint file:  "JID_9982.chk"
 Charge =  0 Multiplicity = 1

 SCF Done:  E(RB3LYP) =  -956.496983322     A.U. after   14 cycles
 Normal termination of Gaussian 16 at Mon Dec 14 14:09:36 2020.

 ----------------------------------------------------------------------
 # B3LYP/6-311++G(d,p) empiricaldispersion=gd3bj scf=xqc pop=npa geom=c
 heck
 ----------------------------------------------------------------------

 -------------------------------------
 CID_108570054_JID_9982_Energie_kation
 -------------------------------------
 Structure from the checkpoint file:  "JID_9982.chk"
 Charge =  1 Multiplicity = 2

 SCF Done:  E(UB3LYP) =  -956.199277347     A.U. after   28 cycles
 Normal termination of Gaussian 16 at Mon Dec 14 14:35:18 2020.
 Gaussian 16:  ES64L-G16RevA.03 25-Dec-2016

 ----------------------------------------------------------------------
 # B3LYP/6-311++G(d,p) empiricaldispersion=gd3bj scf=xqc pop=npa geom=c
 heck
 ----------------------------------------------------------------------

 ------------------------------------
 CID_108570054_JID_9982_Energie_anion
 ------------------------------------
 Structure from the checkpoint file:  "JID_9982.chk"
 Charge = -1 Multiplicity = 2

                         Standard orientation:
 ---------------------------------------------------------------------
 Center     Atomic      Atomic             Coordinates (Angstroms)
 Number     Number       Type             X           Y           Z
 ---------------------------------------------------------------------
      1          6           0       -5.381917   -1.923828    1.026765
      2          6           0       -5.391887   -1.193487   -0.306319
      3          8           0       -4.067908   -0.752135   -0.673087
      4          6           0       -3.662911    0.413465   -0.097607
      5          8           0       -4.360148    1.077784    0.653604
      6          7           0       -2.395021    0.750349   -0.483418
      7          6           0       -1.744471    1.898959    0.142167
      8          6           0       -0.584003    1.429592    1.025193
      9          7           0        0.323561    0.573121    0.259792
     10          6           0       -0.337558   -0.585056   -0.341365
     11          6           0       -1.501113   -0.126973   -1.231685
     12          6           0        1.512006    1.111204   -0.173130
     13          8           0        1.856192    2.256002    0.104594
     14          6           0        2.447384    0.238349   -1.025047
     15          8           0        2.540810   -1.125183   -0.633644
     16          6           0        3.173724   -1.337633    0.623669
     17          6           0        4.685566   -1.433417    0.514922
     18          8           0        5.220478   -0.150480    0.257639
     19          6           0        6.621086   -0.167370    0.083222
     20          1           0       -4.680140   -2.764282    1.003468
     21          1           0       -6.381526   -2.315031    1.247894
     22          1           0       -5.093659   -1.239584    1.828989
     23          1           0       -5.689715   -1.853780   -1.124644
     24          1           0       -6.057348   -0.327989   -0.276656
     25          1           0       -1.355873    2.559845   -0.643397
     26          1           0       -2.493748    2.437137    0.722076
     27          1           0       -0.978222    0.850530    1.869910
     28          1           0       -0.010048    2.277259    1.398576
     29          1           0       -0.733256   -1.214960    0.466715
     30          1           0        0.384754   -1.175771   -0.900588
     31          1           0       -2.063502   -0.980880   -1.604378
     32          1           0       -1.100714    0.430197   -2.090533
     33          1           0        2.085918    0.225194   -2.060174
     34          1           0        3.421900    0.729643   -0.999105
     35          1           0        2.901006   -0.550996    1.340011
     36          1           0        2.786218   -2.291159    0.998649
     37          1           0        5.093276   -1.839497    1.458183
     38          1           0        4.947997   -2.134982   -0.294020
     39          1           0        7.135291   -0.544465    0.981723
     40          1           0        6.915795   -0.794032   -0.773503
     41          1           0        6.934989    0.862579   -0.101378
 ---------------------------------------------------------------------

 SCF Done:  E(UB3LYP) =  -956.486379279     A.U. after   33 cycles
 SCF Done:  E(UB3LYP) =  -956.486379279     a.u. after    1 cycles

 The electronic state is 2-A.
 Alpha  occ. eigenvalues --  -19.07851 -19.04768 -19.04563 -19.01257 -19.00641
 Alpha  occ. eigenvalues --  -14.26540 -14.26324 -10.23664 -10.18761 -10.14318
 Alpha  occ. eigenvalues --  -10.13773 -10.13475 -10.13227 -10.12991 -10.12969
 Alpha  occ. eigenvalues --  -10.12944 -10.12560 -10.12547 -10.07942  -1.02519
 Alpha  occ. eigenvalues --   -0.96992  -0.95898  -0.94759  -0.93315  -0.88477
 Alpha  occ. eigenvalues --   -0.84351  -0.70621  -0.69059  -0.68824  -0.65710
 Alpha  occ. eigenvalues --   -0.63054  -0.59390  -0.58267  -0.57556  -0.54695
 Alpha  occ. eigenvalues --   -0.52464  -0.49764  -0.46612  -0.44223  -0.43126
 Alpha  occ. eigenvalues --   -0.42736  -0.41464  -0.41095  -0.40311  -0.39701
 Alpha  occ. eigenvalues --   -0.39330  -0.38207  -0.38049  -0.37674  -0.36570
 Alpha  occ. eigenvalues --   -0.36155  -0.35777  -0.34067  -0.32436  -0.32295
 Alpha  occ. eigenvalues --   -0.31837  -0.31361  -0.30587  -0.30155  -0.29593
 Alpha  occ. eigenvalues --   -0.29312  -0.28811  -0.28458  -0.28128  -0.26019
 Alpha  occ. eigenvalues --   -0.24984  -0.24749  -0.22060  -0.20173  -0.19695
 Alpha  occ. eigenvalues --   -0.19105  -0.18270  -0.16496  -0.15194   0.03722
 Alpha virt. eigenvalues --    0.05020   0.06208   0.06362   0.07381   0.07616
 Alpha virt. eigenvalues --    0.07976   0.08417   0.08587   0.09135   0.09457
 Alpha virt. eigenvalues --    0.09576   0.10086   0.10734   0.10845   0.11295

  Beta  occ. eigenvalues --  -19.07847 -19.04763 -19.04554 -19.01252 -19.00628
  Beta  occ. eigenvalues --  -14.26541 -14.26327 -10.23659 -10.18746 -10.14300
  Beta  occ. eigenvalues --  -10.13767 -10.13457 -10.13200 -10.12960 -10.12956
  Beta  occ. eigenvalues --  -10.12940 -10.12544 -10.12542 -10.07912  -1.02508
  Beta  occ. eigenvalues --   -0.96976  -0.95879  -0.94744  -0.93306  -0.88469
  Beta  occ. eigenvalues --   -0.84345  -0.70604  -0.69030  -0.68792  -0.65682
  Beta  occ. eigenvalues --   -0.63025  -0.59349  -0.58235  -0.57509  -0.54653
  Beta  occ. eigenvalues --   -0.52400  -0.49739  -0.46588  -0.44196  -0.43104
  Beta  occ. eigenvalues --   -0.42686  -0.41443  -0.41072  -0.40289  -0.39664
  Beta  occ. eigenvalues --   -0.39309  -0.38178  -0.38021  -0.37645  -0.36550
  Beta  occ. eigenvalues --   -0.36135  -0.35756  -0.34047  -0.32416  -0.32266
  Beta  occ. eigenvalues --   -0.31805  -0.31321  -0.30551  -0.30117  -0.29562
  Beta  occ. eigenvalues --   -0.29289  -0.28793  -0.28423  -0.28091  -0.25995
  Beta  occ. eigenvalues --   -0.24940  -0.24717  -0.22044  -0.20164  -0.19674
  Beta  occ. eigenvalues --   -0.19091  -0.18248  -0.16478  -0.15180
  Beta virt. eigenvalues --    0.05700   0.05976   0.06620   0.06976   0.07632
  Beta virt. eigenvalues --    0.07964   0.08454   0.08517   0.09007   0.09263
  Beta virt. eigenvalues --    0.09616   0.09851   0.10339   0.10933   0.11043

 Mulliken charges and spin densities:
               1          2
     1  C    0.366684  -0.748322
     2  C    0.179372  -0.309247
     3  O   -0.096777   0.034243
     4  C    0.046571  -0.106921
     5  O   -0.322883   0.003299
     6  N   -0.046116   0.061290
     7  C   -0.370483   0.126842
     8  C    0.068482  -0.165444
     9  N    0.126861   0.031591
    10  C   -0.086146   0.182219
    11  C   -0.274525  -0.723384
    12  C    0.328002  -0.142054
    13  O   -0.303476   0.011127
    14  C   -0.459597  -0.439658
    15  O   -0.026420   0.032188
    16  C    0.095963  -0.155301
    17  C    0.307015  -0.767874
    18  O   -0.202340   0.067518
    19  C    0.408900  -0.681432
    20  H   -0.132747   0.280199
    21  H   -0.234528   0.375371
    22  H   -0.007032   0.171274
    23  H   -0.366366   0.526666
    24  H    0.159770   0.007215
    25  H    0.138120   0.041186
    26  H    0.204920   0.016190
    27  H    0.070055   0.107514
    28  H    0.180252   0.029866
    29  H    0.025487   0.157361
    30  H    0.007795   0.222140
    31  H   -0.076940   0.356881
    32  H    0.037190   0.128947
    33  H   -0.085825   0.258097
    34  H    0.350690  -0.091019
    35  H    0.242823  -0.050078
    36  H   -0.548546   0.735993
    37  H   -0.188956   0.336578
    38  H   -0.003233   0.168704
    39  H   -0.269425   0.399383
    40  H   -0.205129   0.338435
    41  H   -0.037462   0.172419
 Sum of Mulliken charges =  -1.00000   1.00000

 Dipole moment (field-independent basis, Debye):
    X=             -2.0195    Y=              4.4644    Z=             -1.1332  Tot=              5.0292
 Quadrupole moment (field-independent basis, Debye-Ang):
   XX=           -257.6631   YY=           -168.2132   ZZ=           -145.7009
   XY=             -4.5515   XZ=             -2.5213   YZ=             -0.6168

 Summary of Natural Population Analysis:

                                       Natural Population
                Natural  -----------------------------------------------
    Atom  No    Charge         Core      Valence    Rydberg      Total
 -----------------------------------------------------------------------
      C    1   -0.30069      0.99966     2.29612    0.00490     3.30069
      C    2   -0.01342      0.99958     2.00196    0.01188     3.01342
      O    3   -0.29061      0.99986     3.28210    0.00865     4.29061
      C    4    0.46689      0.99964     1.50760    0.02587     2.53311
      O    5   -0.33892      0.99987     3.33441    0.00464     4.33892
      N    6   -0.26357      0.99964     2.75375    0.01018     3.76357
      C    7   -0.09070      0.99961     2.08255    0.00853     3.09070
      C    8   -0.09436      0.99961     2.08556    0.00919     3.09436
      N    9   -0.25756      0.99964     2.74757    0.01034     3.75756
      C   10   -0.09543      0.99959     2.08424    0.01160     3.09543
      C   11   -0.09058      0.99960     2.08059    0.01039     3.09058
      C   12    0.33193      0.99965     1.64570    0.02272     2.66807
      O   13   -0.32146      0.99988     3.31614    0.00545     4.32146
      C   14   -0.05702      0.99953     2.04401    0.01348     3.05702
      O   15   -0.30127      0.99989     3.29162    0.00976     4.30127
      C   16   -0.02038      0.99956     2.00636    0.01446     3.02038
      C   17   -0.02068      0.99958     2.00877    0.01233     3.02068
      O   18   -0.30059      0.99988     3.29086    0.00985     4.30059
      C   19   -0.09684      0.99962     2.08814    0.00907     3.09684
      H   20    0.10263      0.00000     0.39598    0.00139     0.39737
      H   21    0.10189      0.00000     0.39700    0.00111     0.39811
      H   22    0.10575      0.00000     0.39321    0.00104     0.39425
      H   23    0.09114      0.00000     0.40743    0.00143     0.40886
      H   24    0.09373      0.00000     0.40515    0.00112     0.40627
      H   25    0.09523      0.00000     0.40369    0.00107     0.40477
      H   26    0.11763      0.00000     0.38139    0.00098     0.38237
      H   27    0.09642      0.00000     0.40239    0.00119     0.40358
      H   28    0.11767      0.00000     0.38112    0.00121     0.38233
      H   29    0.09732      0.00000     0.40098    0.00170     0.40268
      H   30    0.11976      0.00000     0.37840    0.00185     0.38024
      H   31    0.11919      0.00000     0.37925    0.00157     0.38081
      H   32    0.09196      0.00000     0.40683    0.00122     0.40804
      H   33    0.09845      0.00000     0.40025    0.00130     0.40155
      H   34    0.10967      0.00000     0.38860    0.00173     0.39033
      H   35    0.08624      0.00000     0.41176    0.00200     0.41376
      H   36    0.09529      0.00000     0.40317    0.00154     0.40471
      H   37    0.08268      0.00000     0.41531    0.00201     0.41732
      H   38    0.08333      0.00000     0.41482    0.00185     0.41667
      H   39    0.07979      0.00000     0.41855    0.00165     0.42021
      H   40    0.07932      0.00000     0.41922    0.00146     0.42068
      H   41    0.09018      0.00000     0.40896    0.00086     0.40982
 =======================================================================
   * Total *    0.00000     18.99392    54.76154    0.24454    74.00000

 Normal termination of Gaussian 16 at Mon Dec 14 15:04:36 2020.
