 Gaussian 16, Revision A.03,

 -----------------------------------------------------------
 # opt freq B3LYP/6-31G(d) empiricaldispersion=gd3bj scf=xqc
 -----------------------------------------------------------

 ------------------------------
 CID_71518007_JID_8049_neutraal
 ------------------------------
 Symbolic Z-matrix:
 Charge =  0 Multiplicity = 1

 SCF Done:  E(RB3LYP) =  -824.249550088     A.U. after   15 cycles
 SCF Done:  E(RB3LYP) =  -824.254909124     A.U. after   12 cycles
 SCF Done:  E(RB3LYP) =  -824.255203814     A.U. after   12 cycles
 SCF Done:  E(RB3LYP) =  -824.255126136     A.U. after   13 cycles
 SCF Done:  E(RB3LYP) =  -824.255796400     A.U. after   12 cycles
 SCF Done:  E(RB3LYP) =  -824.255890130     A.U. after   12 cycles
 SCF Done:  E(RB3LYP) =  -824.255908424     A.U. after   12 cycles
 SCF Done:  E(RB3LYP) =  -824.255937464     A.U. after   10 cycles
 SCF Done:  E(RB3LYP) =  -824.255948437     A.U. after   10 cycles
 SCF Done:  E(RB3LYP) =  -824.255951990     A.U. after   10 cycles
 SCF Done:  E(RB3LYP) =  -824.255955466     A.U. after    9 cycles
 SCF Done:  E(RB3LYP) =  -824.255955555     A.U. after    7 cycles
 SCF Done:  E(RB3LYP) =  -824.255955595     A.U. after    7 cycles
 SCF Done:  E(RB3LYP) =  -824.255955600     A.U. after    6 cycles
 Optimization completed.
    -- Stationary point found.
 Normal termination of Gaussian 16 at Fri Dec 11 18:50:53 2020.

 --------------------------------------------------------------------
 #N Geom=AllCheck Guess=TCheck SCRF=Check GenChk RB3LYP/6-31G(d) Freq
 --------------------------------------------------------------------

 Structure from the checkpoint file:  "JID_8049.chk"
 ------------------------------
 CID_71518007_JID_8049_neutraal
 ------------------------------
 Charge =  0 Multiplicity = 1

 SCF Done:  E(RB3LYP) =  -824.255955600     A.U. after    1 cycles

  Exact polarizability: 175.967  17.402 141.776  16.603 -10.677 137.736
 Approx polarizability: 223.745  32.656 232.298  32.995 -28.436 226.253

                      1                      2                      3
                      A                      A                      A
 Frequencies --     16.8965                17.2910                19.3676
 Red. masses --      4.1284                 1.1814                 2.8579
 Frc consts  --      0.0007                 0.0002                 0.0006
 IR Inten    --      0.6640                 0.2772                 0.7707

                      4                      5                      6
                      A                      A                      A
 Frequencies --     39.2083                70.9797                83.4682
 Red. masses --      4.3599                 5.0187                 4.7549
 Frc consts  --      0.0039                 0.0149                 0.0195
 IR Inten    --      0.3831                 4.3519                 1.7512

                      7                      8                      9
                      A                      A                      A
 Frequencies --    105.6704               126.9474               176.7023
 Red. masses --      6.2582                 6.0694                 3.5153
 Frc consts  --      0.0412                 0.0576                 0.0647
 IR Inten    --      1.4940                 0.7337                 3.1418

                     10                     11                     12
                      A                      A                      A
 Frequencies --    185.4160               236.0524               246.8833
 Red. masses --      3.1889                 1.2789                 2.2543
 Frc consts  --      0.0646                 0.0420                 0.0810
 IR Inten    --      0.3142                 0.2890                 1.2295

                     13                     14                     15
                      A                      A                      A
 Frequencies --    263.9085               267.6648               315.1528
 Red. masses --      3.9916                 4.0562                 2.7381
 Frc consts  --      0.1638                 0.1712                 0.1602
 IR Inten    --      2.3882                 2.8095                 0.5236

                     16                     17                     18
                      A                      A                      A
 Frequencies --    338.5174               368.1858               388.2014
 Red. masses --      2.8060                 3.9613                 2.6223
 Frc consts  --      0.1895                 0.3164                 0.2328
 IR Inten    --      7.5303                 0.2541                 0.2917

                     19                     20                     21
                      A                      A                      A
 Frequencies --    415.8424               421.6098               471.1013
 Red. masses --      3.3949                 3.2098                 2.9727
 Frc consts  --      0.3459                 0.3362                 0.3887
 IR Inten    --      3.6321                 3.1431                 7.7549

                     22                     23                     24
                      A                      A                      A
 Frequencies --    483.5950               519.7182               543.5342
 Red. masses --      3.6084                 2.1654                 2.0263
 Frc consts  --      0.4972                 0.3446                 0.3527
 IR Inten    --      4.3774                62.6972                62.5009

                     25                     26                     27
                      A                      A                      A
 Frequencies --    590.9191               660.0494               664.2144
 Red. masses --      3.6299                 6.5929                 4.1128
 Frc consts  --      0.7468                 1.6923                 1.0691
 IR Inten    --     15.1673                 0.3109                16.7066

                     28                     29                     30
                      A                      A                      A
 Frequencies --    704.3824               723.5277               728.5320
 Red. masses --      3.4844                 6.8960                 3.8292
 Frc consts  --      1.0186                 2.1269                 1.1975
 IR Inten    --      5.0188                 7.7723                 1.9588

                     31                     32                     33
                      A                      A                      A
 Frequencies --    761.4157               771.9902               790.6516
 Red. masses --      3.3397                 4.3315                 4.3358
 Frc consts  --      1.1408                 1.5209                 1.5969
 IR Inten    --     10.1809                 5.5904                 0.4656

                     34                     35                     36
                      A                      A                      A
 Frequencies --    835.8175               859.4647               863.9767
 Red. masses --      2.0067                 1.4588                 2.1377
 Frc consts  --      0.8260                 0.6349                 0.9402
 IR Inten    --     31.7596                 0.8496                 7.8285

                     37                     38                     39
                      A                      A                      A
 Frequencies --    869.3018               901.8851               953.1131
 Red. masses --      2.1821                 2.6276                 2.3401
 Frc consts  --      0.9715                 1.2593                 1.2525
 IR Inten    --     12.0380                14.2115                 4.7557

                     40                     41                     42
                      A                      A                      A
 Frequencies --    959.6463               973.5107               979.0397
 Red. masses --      1.3679                 2.0366                 1.4923
 Frc consts  --      0.7422                 1.1372                 0.8427
 IR Inten    --      3.7980                23.6738                 0.6915

                     43                     44                     45
                      A                      A                      A
 Frequencies --    989.0499              1003.6842              1033.5820
 Red. masses --      2.2790                 1.6978                 1.6947
 Frc consts  --      1.3135                 1.0077                 1.0667
 IR Inten    --     27.5676                 2.5360                 7.5082

                     46                     47                     48
                      A                      A                      A
 Frequencies --   1040.4296              1047.2043              1075.8106
 Red. masses --      1.8070                 2.7436                 1.5318
 Frc consts  --      1.1525                 1.7727                 1.0445
 IR Inten    --      6.3586                 1.1003                 9.3903

                     49                     50                     51
                      A                      A                      A
 Frequencies --   1081.5934              1152.3761              1155.5351
 Red. masses --      2.1179                 1.8988                 1.4469
 Frc consts  --      1.4598                 1.4857                 1.1383
 IR Inten    --     34.7855                59.7764                14.5229

                     52                     53                     54
                      A                      A                      A
 Frequencies --   1165.2505              1200.2681              1221.3383
 Red. masses --      2.5357                 2.6289                 1.1383
 Frc consts  --      2.0285                 2.2314                 1.0004
 IR Inten    --    152.2698                34.4540                11.0351

                     55                     56                     57
                      A                      A                      A
 Frequencies --   1229.0817              1243.1960              1249.8002
 Red. masses --      1.3227                 5.3002                 2.1912
 Frc consts  --      1.1773                 4.8264                 2.0165
 IR Inten    --     65.5952                 8.0797                 5.3686

                     58                     59                     60
                      A                      A                      A
 Frequencies --   1260.2430              1286.8556              1293.4182
 Red. masses --      1.6352                 2.6448                 1.5182
 Frc consts  --      1.5302                 2.5805                 1.4964
 IR Inten    --     28.0427               181.4624                23.0208

                     61                     62                     63
                      A                      A                      A
 Frequencies --   1305.9612              1354.5783              1363.1637
 Red. masses --      2.4108                 1.9632                 1.3730
 Frc consts  --      2.4226                 2.1223                 1.5032
 IR Inten    --    118.3393                 1.9785                 6.7523

                     64                     65                     66
                      A                      A                      A
 Frequencies --   1370.8994              1384.3283              1417.5099
 Red. masses --      2.0176                 1.6422                 1.3890
 Frc consts  --      2.2340                 1.8542                 1.6444
 IR Inten    --      2.0356                12.9924                15.2269

                     67                     68                     69
                      A                      A                      A
 Frequencies --   1436.5127              1442.5957              1464.5931
 Red. masses --      1.2402                 1.2473                 2.2581
 Frc consts  --      1.5079                 1.5294                 2.8538
 IR Inten    --      8.7672                 0.0690                24.9531

                     70                     71                     72
                      A                      A                      A
 Frequencies --   1464.9036              1513.7501              1517.6907
 Red. masses --      2.0745                 1.0602                 1.0626
 Frc consts  --      2.6230                 1.4313                 1.4421
 IR Inten    --     26.0182                 4.6653                 0.6427

                     73                     74                     75
                      A                      A                      A
 Frequencies --   1518.0927              1523.3392              1523.5400
 Red. masses --      1.0987                 1.0871                 1.1084
 Frc consts  --      1.4918                 1.4863                 1.5159
 IR Inten    --     16.6519                 1.3022                 7.3927

                     76                     77                     78
                      A                      A                      A
 Frequencies --   1527.6428              1562.9722              1569.0042
 Red. masses --      1.0598                 1.0943                 2.5408
 Frc consts  --      1.4572                 1.5750                 3.6853
 IR Inten    --     10.8241                 5.7165                11.0742

                     79                     80                     81
                      A                      A                      A
 Frequencies --   1636.6356              1678.8062              1815.7351
 Red. masses --      5.7127                 5.8297                11.6231
 Frc consts  --      9.0156                 9.6804                22.5776
 IR Inten    --      0.1193                 8.6667               146.5878

                     82                     83                     84
                      A                      A                      A
 Frequencies --   1837.3650              3022.4453              3042.5222
 Red. masses --     10.5302                 1.0701                 1.0404
 Frc consts  --     20.9448                 5.7594                 5.6744
 IR Inten    --    382.5912                60.9123                30.6597

                     85                     86                     87
                      A                      A                      A
 Frequencies --   3064.6273              3089.6048              3098.3018
 Red. masses --      1.0372                 1.0861                 1.0689
 Frc consts  --      5.7394                 6.1083                 6.0455
 IR Inten    --     21.2373                19.6864                26.7372

                     88                     89                     90
                      A                      A                      A
 Frequencies --   3099.5997              3107.8752              3127.1096
 Red. masses --      1.0958                 1.0577                 1.1026
 Frc consts  --      6.2029                 6.0192                 6.3528
 IR Inten    --     21.4320                27.3547                15.9826

                     91                     92                     93
                      A                      A                      A
 Frequencies --   3136.8637              3145.4489              3158.9410
 Red. masses --      1.0999                 1.1074                 1.1036
 Frc consts  --      6.3769                 6.4551                 6.4887
 IR Inten    --     18.0861                14.4336                 8.8179

                     94                     95                     96
                      A                      A                      A
 Frequencies --   3164.1059              3174.0725              3180.5362
 Red. masses --      1.1099                 1.0871                 1.0892
 Frc consts  --      6.5472                 6.4529                 6.4918
 IR Inten    --      5.1460                12.5989                18.8438

                     97                     98                     99
                      A                      A                      A
 Frequencies --   3191.5333              3219.5237              3626.6954
 Red. masses --      1.0944                 1.0928                 1.0776
 Frc consts  --      6.5681                 6.6741                 8.3505
 IR Inten    --     21.7837                 2.7714                29.4087

 - Thermochemistry -
 -------------------
 Temperature   298.150 Kelvin.  Pressure   1.00000 Atm.
 Atom     1 has atomic number  6 and mass  12.00000

 Molecular mass:   247.12084 amu.
 Principal axes and moments of inertia in atomic units:
                           1         2         3
     Eigenvalues --  2054.610448576.378708864.96634
           X            0.99999  -0.00047  -0.00364
           Y            0.00049   0.99998   0.00627
           Z            0.00363  -0.00627   0.99997
 This molecule is an asymmetric top.
 Rotational symmetry number  1.
 Warning -- assumption of classical behavior for rotation
           may cause significant error
 Rotational temperatures (Kelvin)      0.04216     0.01010     0.00977
 Rotational constants (GHZ):           0.87839     0.21043     0.20358
 Zero-point vibrational energy     767533.0 (Joules/Mol)
                                  183.44479 (Kcal/Mol)
 Warning -- explicit consideration of  25 degrees of freedom as
           vibrations may cause significant error
 Vibrational temperatures:     24.31    24.88    27.87    56.41   102.12
          (Kelvin)            120.09   152.04   182.65   254.24   266.77
                              339.63   355.21   379.71   385.11   453.43
                              487.05   529.74   558.54   598.30   606.60
                              677.81   695.79   747.76   782.02   850.20
                              949.66   955.66  1013.45  1041.00  1048.20
                             1095.51  1110.72  1137.57  1202.55  1236.58
                             1243.07  1250.73  1297.61  1371.32  1380.72
                             1400.66  1408.62  1423.02  1444.08  1487.09
                             1496.95  1506.69  1547.85  1556.17  1658.01
                             1662.56  1676.54  1726.92  1757.23  1768.37
                             1788.68  1798.18  1813.21  1851.50  1860.94
                             1878.99  1948.94  1961.29  1972.42  1991.74
                             2039.48  2066.82  2075.57  2107.22  2107.67
                             2177.95  2183.62  2184.20  2191.75  2192.03
                             2197.94  2248.77  2257.45  2354.75  2415.43
                             2612.44  2643.56  4348.62  4377.51  4409.32
                             4445.25  4457.77  4459.63  4471.54  4499.21
                             4513.25  4525.60  4545.01  4552.44  4566.78
                             4576.08  4591.90  4632.18  5218.01

 Zero-point correction=                           0.292338 (Hartree/Particle)
 Thermal correction to Energy=                    0.309709
 Thermal correction to Enthalpy=                  0.310653
 Thermal correction to Gibbs Free Energy=         0.243319
 Sum of electronic and zero-point Energies=           -823.963618
 Sum of electronic and thermal Energies=              -823.946247
 Sum of electronic and thermal Enthalpies=            -823.945303
 Sum of electronic and thermal Free Energies=         -824.012637

                     E (Thermal)             CV                S
                      KCal/Mol        Cal/Mol-Kelvin    Cal/Mol-Kelvin
 Total                  194.345             64.497            141.717
 Electronic               0.000              0.000              0.000
 Translational            0.889              2.981             42.415
 Rotational               0.889              2.981             33.412
 Vibrational            192.568             58.536             65.889
 Vibration     1          0.593              1.986              6.969
 Vibration     2          0.593              1.986              6.923
 Vibration     3          0.593              1.986              6.698
 Vibration     4          0.594              1.981              5.299
 Vibration     5          0.598              1.968              4.126
 Vibration     6          0.600              1.961              3.808
 Vibration     7          0.605              1.945              3.347
 Vibration     8          0.611              1.926              2.992
 Vibration     9          0.628              1.871              2.363
 Vibration    10          0.631              1.860              2.273
 Vibration    11          0.655              1.786              1.832
 Vibration    12          0.661              1.768              1.753
 Vibration    13          0.670              1.739              1.636
 Vibration    14          0.673              1.733              1.611
 Vibration    15          0.703              1.645              1.335
 Vibration    16          0.719              1.599              1.219
 Vibration    17          0.741              1.538              1.087
 Vibration    18          0.756              1.495              1.007
 Vibration    19          0.779              1.436              0.906
 Vibration    20          0.784              1.423              0.887
 Vibration    21          0.828              1.314              0.734
 Vibration    22          0.840              1.286              0.700
 Vibration    23          0.875              1.206              0.611
 Vibration    24          0.899              1.154              0.558
 Vibration    25          0.948              1.051              0.466

 Optimization completed.
    -- Stationary point found.
 Normal termination of Gaussian 16 at Fri Dec 11 19:04:48 2020.

 ----------------------------------------------------------------------
 # B3LYP/6-311++G(d,p) empiricaldispersion=gd3bj scf=xqc pop=npa geom=c
 heck
 ----------------------------------------------------------------------

 --------------------------------------
 CID_71518007_JID_8049_Energie_neutraal
 --------------------------------------
 Structure from the checkpoint file:  "JID_8049.chk"
 Charge =  0 Multiplicity = 1

 SCF Done:  E(RB3LYP) =  -824.487676214     A.U. after   15 cycles
 Normal termination of Gaussian 16 at Fri Dec 11 19:10:55 2020.

 ----------------------------------------------------------------------
 # B3LYP/6-311++G(d,p) empiricaldispersion=gd3bj scf=xqc pop=npa geom=c
 heck
 ----------------------------------------------------------------------

 ------------------------------------
 CID_71518007_JID_8049_Energie_kation
 ------------------------------------
 Structure from the checkpoint file:  "JID_8049.chk"
 Charge =  1 Multiplicity = 2

 SCF Done:  E(UB3LYP) =  -824.179301741     A.U. after   33 cycles
 SCF Done:  E(UB3LYP) =  -824.179301741     a.u. after    1 cycles
 Normal termination of Gaussian 16 at Fri Dec 11 19:29:57 2020.
 Gaussian 16:  ES64L-G16RevA.03 25-Dec-2016

 ----------------------------------------------------------------------
 # B3LYP/6-311++G(d,p) empiricaldispersion=gd3bj scf=xqc pop=npa geom=c
 heck
 ----------------------------------------------------------------------

 -----------------------------------
 CID_71518007_JID_8049_Energie_anion
 -----------------------------------
 Structure from the checkpoint file:  "JID_8049.chk"
 Charge = -1 Multiplicity = 2

                         Standard orientation:
 ---------------------------------------------------------------------
 Center     Atomic      Atomic             Coordinates (Angstroms)
 Number     Number       Type             X           Y           Z
 ---------------------------------------------------------------------
      1          6           0        5.404726    1.150189    0.858708
      2          6           0        4.177984    0.498146    0.269212
      3          6           0        3.629895    0.949376   -0.937103
      4          6           0        2.483338    0.360455   -1.466603
      5          6           0        1.853965   -0.698544   -0.804934
      6          6           0        2.397823   -1.155341    0.401899
      7          6           0        3.544516   -0.564745    0.926485
      8          6           0        0.597299   -1.306239   -1.365120
      9          8           0       -0.576865   -0.571082   -0.920522
     10          6           0       -1.104203   -0.938237    0.264272
     11          8           0       -0.698016   -1.858395    0.940244
     12          6           0       -2.260805   -0.023425    0.641489
     13          6           0       -1.805985    1.451724    0.772812
     14          6           0       -2.991915    2.272252    0.222461
     15          7           0       -3.600904    1.344631   -0.716289
     16          6           0       -3.295396    0.028579   -0.508746
     17          8           0       -3.781906   -0.929293   -1.080652
     18          6           0       -2.962409   -0.550057    1.899569
     19          1           0        5.986885    1.673706    0.093696
     20          1           0        5.131416    1.887670    1.624905
     21          1           0        6.058015    0.413428    1.338360
     22          1           0        4.110301    1.766772   -1.469491
     23          1           0        2.075478    0.722388   -2.407584
     24          1           0        1.909003   -1.968260    0.928964
     25          1           0        3.958117   -0.935683    1.861378
     26          1           0        0.561987   -1.223451   -2.452696
     27          1           0        0.483349   -2.350239   -1.069454
     28          1           0       -1.560326    1.718645    1.803874
     29          1           0       -0.924465    1.622834    0.150772
     30          1           0       -2.661287    3.186915   -0.279979
     31          1           0       -3.693903    2.557516    1.019240
     32          1           0       -4.378901    1.586638   -1.314762
     33          1           0       -3.392511   -1.535511    1.705892
     34          1           0       -2.248125   -0.639943    2.721994
     35          1           0       -3.767398    0.129520    2.199949
 ---------------------------------------------------------------------

 SCF Done:  E(UB3LYP) =  -824.478250434     A.U. after   33 cycles
 SCF Done:  E(UB3LYP) =  -824.478250434     a.u. after    1 cycles

 The electronic state is 2-A.
 Alpha  occ. eigenvalues --  -19.08450 -19.03130 -19.00406 -14.25008 -10.21953
 Alpha  occ. eigenvalues --  -10.18584 -10.15030 -10.12123 -10.11818 -10.10354
 Alpha  occ. eigenvalues --  -10.09962 -10.09462 -10.09439 -10.09261 -10.09094
 Alpha  occ. eigenvalues --  -10.09025 -10.08542 -10.08153  -1.02568  -0.95411
 Alpha  occ. eigenvalues --   -0.94037  -0.85397  -0.78209  -0.73558  -0.70844
 Alpha  occ. eigenvalues --   -0.66629  -0.65447  -0.64724  -0.60069  -0.58188
 Alpha  occ. eigenvalues --   -0.53279  -0.53145  -0.52376  -0.49746  -0.46883
 Alpha  occ. eigenvalues --   -0.42762  -0.42114  -0.41328  -0.40770  -0.39640
 Alpha  occ. eigenvalues --   -0.38640  -0.37915  -0.36637  -0.35114  -0.34155
 Alpha  occ. eigenvalues --   -0.33987  -0.33886  -0.33721  -0.32339  -0.31735
 Alpha  occ. eigenvalues --   -0.30735  -0.30013  -0.29920  -0.29081  -0.28214
 Alpha  occ. eigenvalues --   -0.27800  -0.27199  -0.26742  -0.25756  -0.25208
 Alpha  occ. eigenvalues --   -0.22486  -0.20043  -0.17529  -0.17490  -0.16676
 Alpha  occ. eigenvalues --   -0.16389   0.03724
 Alpha virt. eigenvalues --    0.05108   0.05791   0.06492   0.06625   0.07175
 Alpha virt. eigenvalues --    0.07457   0.07799   0.07998   0.08912   0.09059
 Alpha virt. eigenvalues --    0.09492   0.09560   0.10446   0.10605   0.11351

  Beta  occ. eigenvalues --  -19.08448 -19.03128 -19.00402 -14.24986 -10.21951
  Beta  occ. eigenvalues --  -10.18584 -10.15027 -10.12076 -10.11816 -10.10348
  Beta  occ. eigenvalues --  -10.09958 -10.09453 -10.09426 -10.09257 -10.09085
  Beta  occ. eigenvalues --  -10.09009 -10.08511 -10.08139  -1.02563  -0.95403
  Beta  occ. eigenvalues --   -0.94032  -0.85366  -0.78192  -0.73538  -0.70821
  Beta  occ. eigenvalues --   -0.66608  -0.65411  -0.64684  -0.60031  -0.58142
  Beta  occ. eigenvalues --   -0.53242  -0.53117  -0.52322  -0.49716  -0.46868
  Beta  occ. eigenvalues --   -0.42736  -0.42089  -0.41262  -0.40749  -0.39619
  Beta  occ. eigenvalues --   -0.38620  -0.37881  -0.36609  -0.35095  -0.34128
  Beta  occ. eigenvalues --   -0.33962  -0.33855  -0.33693  -0.32318  -0.31704
  Beta  occ. eigenvalues --   -0.30705  -0.29971  -0.29895  -0.29061  -0.28198
  Beta  occ. eigenvalues --   -0.27771  -0.27170  -0.26724  -0.25739  -0.25190
  Beta  occ. eigenvalues --   -0.22480  -0.20036  -0.17509  -0.17469  -0.16652
  Beta  occ. eigenvalues --   -0.16356
  Beta virt. eigenvalues --    0.05693   0.05867   0.06482   0.06506   0.07148
  Beta virt. eigenvalues --    0.07504   0.07818   0.08075   0.08550   0.09075
  Beta virt. eigenvalues --    0.09478   0.09752   0.09982   0.10542   0.10876

 Mulliken charges and spin densities:
               1          2
     1  C    1.905853  -2.575541
     2  C   -0.216305   0.632738
     3  C   -0.105884  -0.316953
     4  C   -0.252606  -0.053538
     5  C    1.097078  -0.390876
     6  C   -0.655979   0.559483
     7  C   -0.685969   0.424923
     8  C   -0.480296  -0.205646
     9  O    0.128665  -0.002965
    10  C   -0.729527   0.077791
    11  O   -0.223001   0.000954
    12  C    0.980111  -0.274132
    13  C   -1.809503   1.562752
    14  C    2.586187  -3.031364
    15  N   -0.440047   0.233861
    16  C   -0.393744   0.501800
    17  O   -0.366273   0.006534
    18  C    0.310778  -0.892024
    19  H   -0.284805   0.430403
    20  H   -0.011547   0.182074
    21  H   -0.153488   0.292746
    22  H   -0.482175   0.661273
    23  H   -0.231452   0.400254
    24  H    0.126747   0.072048
    25  H   -0.119055   0.296301
    26  H    0.115059   0.067256
    27  H    0.156826   0.021932
    28  H   -0.253204   0.413099
    29  H    0.527273  -0.364169
    30  H   -0.813907   1.008984
    31  H   -0.436054   0.619313
    32  H   -0.058128   0.391271
    33  H    0.167490   0.012994
    34  H    0.138157   0.044602
    35  H   -0.037276   0.191823
 Sum of Mulliken charges =  -1.00000   1.00000

 Dipole moment (field-independent basis, Debye):
    X=              1.3836    Y=             -5.3635    Z=              0.5959  Tot=              5.5711
 Quadrupole moment (field-independent basis, Debye-Ang):
   XX=           -217.7211   YY=           -160.8737   ZZ=           -139.9314
   XY=              2.7325   XZ=             -2.1706   YZ=              1.4528

 Summary of Natural Population Analysis:

                                       Natural Population
                Natural  -----------------------------------------------
    Atom  No    Charge         Core      Valence    Rydberg      Total
 -----------------------------------------------------------------------
      C    1   -0.29217      0.99964     2.28740    0.00514     3.29217
      C    2   -0.01191      0.99952     2.00181    0.01058     3.01191
      C    3   -0.09985      0.99951     2.09020    0.01014     3.09985
      C    4   -0.08833      0.99952     2.07830    0.01052     3.08833
      C    5   -0.04633      0.99950     2.03707    0.00976     3.04633
      C    6   -0.08911      0.99952     2.08105    0.00853     3.08911
      C    7   -0.10009      0.99951     2.09164    0.00894     3.10009
      C    8   -0.02187      0.99951     2.01124    0.01112     3.02187
      O    9   -0.27683      0.99986     3.26904    0.00793     4.27683
      C   10    0.42435      0.99962     1.54872    0.02731     2.57565
      O   11   -0.30564      0.99987     3.30062    0.00515     4.30564
      C   12   -0.11665      0.99949     2.10428    0.01289     3.11665
      C   13   -0.18577      0.99961     2.17711    0.00906     3.18577
      C   14   -0.08163      0.99963     2.07105    0.01095     3.08163
      N   15   -0.31539      0.99967     2.80502    0.01070     3.81539
      C   16    0.35491      0.99962     1.61977    0.02570     2.64509
      O   17   -0.31886      0.99987     3.31320    0.00579     4.31886
      C   18   -0.28164      0.99964     2.27411    0.00789     3.28164
      H   19    0.10470      0.00000     0.39381    0.00149     0.39530
      H   20    0.10589      0.00000     0.39289    0.00122     0.39411
      H   21    0.10329      0.00000     0.39538    0.00132     0.39671
      H   22    0.10238      0.00000     0.39635    0.00127     0.39762
      H   23    0.10212      0.00000     0.39685    0.00104     0.39788
      H   24    0.10928      0.00000     0.38935    0.00137     0.39072
      H   25    0.09973      0.00000     0.39938    0.00089     0.40027
      H   26    0.09682      0.00000     0.40215    0.00104     0.40318
      H   27    0.10092      0.00000     0.39785    0.00123     0.39908
      H   28    0.10514      0.00000     0.39370    0.00116     0.39486
      H   29    0.11055      0.00000     0.38736    0.00209     0.38945
      H   30    0.10211      0.00000     0.39447    0.00342     0.39789
      H   31    0.09193      0.00000     0.40435    0.00371     0.40807
      H   32    0.19976      0.00000     0.29700    0.00324     0.30024
      H   33    0.10949      0.00000     0.38969    0.00081     0.39051
      H   34    0.10691      0.00000     0.39225    0.00083     0.39309
      H   35    0.10177      0.00000     0.39739    0.00085     0.39823
 =======================================================================
   * Total *   -0.00000     17.99309    47.78185    0.22506    66.00000

 Normal termination of Gaussian 16 at Fri Dec 11 19:49:07 2020.
