 Gaussian 16, Revision A.03,

 -----------------------------------------------------------
 # opt freq B3LYP/6-31G(d) empiricaldispersion=gd3bj scf=xqc
 -----------------------------------------------------------

 ------------------------------
 CID_43523591_JID_8582_neutraal
 ------------------------------
 Symbolic Z-matrix:
 Charge =  0 Multiplicity = 1

 SCF Done:  E(RB3LYP) =  -782.077316472     A.U. after   15 cycles
 SCF Done:  E(RB3LYP) =  -782.068627614     A.U. after   15 cycles
 SCF Done:  E(RB3LYP) =  -782.080758755     A.U. after   13 cycles
 SCF Done:  E(RB3LYP) =  -782.081875004     A.U. after   12 cycles
 SCF Done:  E(RB3LYP) =  -782.082156360     A.U. after   12 cycles
 SCF Done:  E(RB3LYP) =  -782.082413675     A.U. after   11 cycles
 SCF Done:  E(RB3LYP) =  -782.082513280     A.U. after   11 cycles
 SCF Done:  E(RB3LYP) =  -782.082532771     A.U. after   11 cycles
 SCF Done:  E(RB3LYP) =  -782.082539530     A.U. after   10 cycles
 SCF Done:  E(RB3LYP) =  -782.082543113     A.U. after   10 cycles
 SCF Done:  E(RB3LYP) =  -782.082549790     A.U. after    9 cycles
 SCF Done:  E(RB3LYP) =  -782.082549908     A.U. after    7 cycles
 SCF Done:  E(RB3LYP) =  -782.082549968     A.U. after    7 cycles
 SCF Done:  E(RB3LYP) =  -782.082549999     A.U. after    7 cycles
 SCF Done:  E(RB3LYP) =  -782.082550017     A.U. after    7 cycles
 Optimization completed.
    -- Stationary point found.
 Normal termination of Gaussian 16 at Fri Dec 11 21:18:09 2020.

 --------------------------------------------------------------------
 #N Geom=AllCheck Guess=TCheck SCRF=Check GenChk RB3LYP/6-31G(d) Freq
 --------------------------------------------------------------------

 Structure from the checkpoint file:  "JID_8582.chk"
 ------------------------------
 CID_43523591_JID_8582_neutraal
 ------------------------------
 Charge =  0 Multiplicity = 1

 SCF Done:  E(RB3LYP) =  -782.082550017     A.U. after    1 cycles

  Exact polarizability: 202.228   8.215 169.970  36.449 -10.277 108.639
 Approx polarizability: 292.560  24.902 295.291  70.862 -32.079 182.764

                      1                      2                      3
                      A                      A                      A
 Frequencies --     18.4751                22.2958                56.5423
 Red. masses --      5.1782                 4.6319                 4.9327
 Frc consts  --      0.0010                 0.0014                 0.0093
 IR Inten    --      2.4370                 0.3550                 1.3643

                      4                      5                      6
                      A                      A                      A
 Frequencies --     62.1705                92.6130               130.8545
 Red. masses --      4.8538                 4.7763                 3.6377
 Frc consts  --      0.0111                 0.0241                 0.0367
 IR Inten    --      1.9331                 1.4840                 1.8654

                      7                      8                      9
                      A                      A                      A
 Frequencies --    165.5984               190.5058               199.5280
 Red. masses --      4.1790                 4.7988                 4.2694
 Frc consts  --      0.0675                 0.1026                 0.1001
 IR Inten    --      1.3946                 0.1704                 0.5906

                     10                     11                     12
                      A                      A                      A
 Frequencies --    254.9114               264.2099               302.4554
 Red. masses --      2.0060                 1.5013                 5.5822
 Frc consts  --      0.0768                 0.0617                 0.3009
 IR Inten    --      3.2416                 0.7622                 1.8628

                     13                     14                     15
                      A                      A                      A
 Frequencies --    308.6425               356.3393               385.6646
 Red. masses --      3.0922                 3.2938                 1.2996
 Frc consts  --      0.1736                 0.2464                 0.1139
 IR Inten    --      4.0867                12.3066                63.4573

                     16                     17                     18
                      A                      A                      A
 Frequencies --    410.2294               413.0800               442.7695
 Red. masses --      3.1226                 4.0716                 3.0807
 Frc consts  --      0.3096                 0.4093                 0.3558
 IR Inten    --      2.3689                 3.6934                18.5139

                     19                     20                     21
                      A                      A                      A
 Frequencies --    444.4464               525.7258               551.5356
 Red. masses --      3.7449                 3.0118                 4.0021
 Frc consts  --      0.4358                 0.4905                 0.7173
 IR Inten    --      0.7058                19.9760                 1.2561

                     22                     23                     24
                      A                      A                      A
 Frequencies --    564.9009               571.5291               606.0073
 Red. masses --      4.8385                 4.0350                 1.3953
 Frc consts  --      0.9097                 0.7766                 0.3019
 IR Inten    --      1.7734                19.6406               171.7834

                     25                     26                     27
                      A                      A                      A
 Frequencies --    617.4848               640.5972               657.9140
 Red. masses --      3.2978                 5.3865                 4.5284
 Frc consts  --      0.7408                 1.3023                 1.1549
 IR Inten    --     51.1322                16.9016                 8.7201

                     28                     29                     30
                      A                      A                      A
 Frequencies --    690.0988               730.2487               741.5411
 Red. masses --      3.1129                 2.3352                 3.1680
 Frc consts  --      0.8735                 0.7337                 1.0264
 IR Inten    --     19.8034                12.9575                15.2480

                     31                     32                     33
                      A                      A                      A
 Frequencies --    759.7266               773.2690               809.7512
 Red. masses --      1.8758                 1.7511                 2.8935
 Frc consts  --      0.6379                 0.6169                 1.1178
 IR Inten    --     32.7649                51.1554                47.6690

                     34                     35                     36
                      A                      A                      A
 Frequencies --    819.1603               826.0730               858.7125
 Red. masses --      3.1810                 1.7682                 1.8382
 Frc consts  --      1.2576                 0.7109                 0.7986
 IR Inten    --      7.5612                 8.4197                 0.5669

                     37                     38                     39
                      A                      A                      A
 Frequencies --    865.4248               945.8925               950.9063
 Red. masses --      3.2747                 1.3347                 1.3556
 Frc consts  --      1.4450                 0.7036                 0.7222
 IR Inten    --      8.3282                 0.0841                 1.8211

                     40                     41                     42
                      A                      A                      A
 Frequencies --    953.2369               966.1043               973.4885
 Red. masses --      1.7401                 1.4068                 1.2478
 Frc consts  --      0.9316                 0.7736                 0.6967
 IR Inten    --      8.4049                 0.6127                 0.2125

                     43                     44                     45
                      A                      A                      A
 Frequencies --    994.5497              1038.2578              1046.6158
 Red. masses --      1.3741                 2.5860                 3.6528
 Frc consts  --      0.8008                 1.6424                 2.3575
 IR Inten    --      0.1135                18.2587                 8.2031

                     46                     47                     48
                      A                      A                      A
 Frequencies --   1061.1660              1077.7423              1091.9833
 Red. masses --      2.3442                 2.5925                 1.8151
 Frc consts  --      1.5553                 1.7742                 1.2752
 IR Inten    --      2.3919                 0.5883                 5.1202

                     49                     50                     51
                      A                      A                      A
 Frequencies --   1100.5994              1143.2311              1148.7945
 Red. masses --      2.1820                 1.8177                 2.8810
 Frc consts  --      1.5572                 1.3997                 2.2402
 IR Inten    --      2.1868                18.7093                56.9426

                     52                     53                     54
                      A                      A                      A
 Frequencies --   1168.3004              1178.8549              1197.3545
 Red. masses --      1.8534                 1.2996                 1.1076
 Frc consts  --      1.4905                 1.0641                 0.9355
 IR Inten    --     68.4993                 8.4737                10.3523

                     55                     56                     57
                      A                      A                      A
 Frequencies --   1232.0708              1259.2442              1304.2109
 Red. masses --      1.8430                 1.7053                 2.2614
 Frc consts  --      1.6483                 1.5932                 2.2663
 IR Inten    --     17.2491                19.8277                10.5510

                     58                     59                     60
                      A                      A                      A
 Frequencies --   1306.0026              1327.6463              1347.4274
 Red. masses --      5.8481                 3.5154                 1.3688
 Frc consts  --      5.8770                 3.6509                 1.4642
 IR Inten    --     15.6320               131.7542                 8.4553

                     61                     62                     63
                      A                      A                      A
 Frequencies --   1360.5708              1366.4405              1377.5633
 Red. masses --      1.6153                 2.0825                 3.5057
 Frc consts  --      1.7618                 2.2909                 3.9197
 IR Inten    --     33.3645                92.8966                58.4577

                     64                     65                     66
                      A                      A                      A
 Frequencies --   1399.8906              1435.0513              1471.3704
 Red. masses --      1.2591                 1.2294                 1.8452
 Frc consts  --      1.4537                 1.4917                 2.3537
 IR Inten    --      5.6574                 5.7657                24.3304

                     67                     68                     69
                      A                      A                      A
 Frequencies --   1482.4993              1510.8656              1520.7199
 Red. masses --      1.5087                 2.7541                 1.0514
 Frc consts  --      1.9536                 3.7040                 1.4326
 IR Inten    --     11.6580                88.3714                 4.4249

                     70                     71                     72
                      A                      A                      A
 Frequencies --   1525.3904              1530.5462              1540.7962
 Red. masses --      1.2046                 1.7913                 2.4976
 Frc consts  --      1.6515                 2.4723                 3.4935
 IR Inten    --      2.4854                 8.2665                40.5361

                     73                     74                     75
                      A                      A                      A
 Frequencies --   1629.7611              1633.7646              1651.9829
 Red. masses --      5.2089                 5.1163                 5.5222
 Frc consts  --      8.1516                 8.0462                 8.8791
 IR Inten    --     11.2365                10.9979                 7.1531

                     76                     77                     78
                      A                      A                      A
 Frequencies --   1668.8610              1689.6347              1775.6844
 Red. masses --      3.7504                 1.3505                 8.3659
 Frc consts  --      6.1542                 2.2716                15.5416
 IR Inten    --     53.8227               160.9606               345.3641

                     79                     80                     81
                      A                      A                      A
 Frequencies --   3049.7333              3102.0758              3124.0742
 Red. masses --      1.0364                 1.0869                 1.0982
 Frc consts  --      5.6792                 6.1625                 6.3148
 IR Inten    --     17.6017                 0.8650                17.6161

                     82                     83                     84
                      A                      A                      A
 Frequencies --   3137.3108              3153.7847              3177.2388
 Red. masses --      1.1040                 1.0897                 1.0869
 Frc consts  --      6.4025                 6.3860                 6.4644
 IR Inten    --     21.5954                26.4631                 8.4593

                     85                     86                     87
                      A                      A                      A
 Frequencies --   3178.6110              3191.6895              3194.6281
 Red. masses --      1.0891                 1.0893                 1.0902
 Frc consts  --      6.4830                 6.5379                 6.5556
 IR Inten    --     15.0993                14.3476                14.1333

                     88                     89                     90
                      A                      A                      A
 Frequencies --   3206.0742              3214.7147              3219.9422
 Red. masses --      1.0905                 1.0964                 1.0965
 Frc consts  --      6.6045                 6.6758                 6.6984
 IR Inten    --     12.2672                18.7472                17.8930

                     91                     92                     93
                      A                      A                      A
 Frequencies --   3543.9375              3572.9347              3678.0342
 Red. masses --      1.0746                 1.0472                 1.1001
 Frc consts  --      7.9522                 7.8767                 8.7686
 IR Inten    --     13.8817                40.6172                31.8983

 - Thermochemistry -
 -------------------
 Temperature   298.150 Kelvin.  Pressure   1.00000 Atm.
 Atom     1 has atomic number  6 and mass  12.00000

 Molecular mass:   241.12151 amu.
 Principal axes and moments of inertia in atomic units:
                           1         2         3
     Eigenvalues --  2475.812996212.193837421.35693
           X            0.99980  -0.01722   0.00999
           Y            0.01690   0.99935   0.03194
           Z           -0.01054  -0.03176   0.99944
 This molecule is an asymmetric top.
 Rotational symmetry number  1.
 Warning -- assumption of classical behavior for rotation
           may cause significant error
 Rotational temperatures (Kelvin)      0.03498     0.01394     0.01167
 Rotational constants (GHZ):           0.72895     0.29052     0.24318
 Zero-point vibrational energy     713338.5 (Joules/Mol)
                                  170.49200 (Kcal/Mol)
 Warning -- explicit consideration of  25 degrees of freedom as
           vibrations may cause significant error
 Vibrational temperatures:     26.58    32.08    81.35    89.45   133.25
          (Kelvin)            188.27   238.26   274.10   287.08   366.76
                              380.14   435.17   444.07   512.69   554.89
                              590.23   594.33   637.05   639.46   756.40
                              793.54   812.77   822.30   871.91   888.42
                              921.68   946.59   992.90  1050.66  1066.91
                             1093.08  1112.56  1165.05  1178.59  1188.53
                             1235.50  1245.15  1360.93  1368.14  1371.50
                             1390.01  1400.63  1430.94  1493.82  1505.85
                             1526.78  1550.63  1571.12  1583.52  1644.85
                             1652.86  1680.92  1696.11  1722.73  1772.68
                             1811.77  1876.47  1879.05  1910.19  1938.65
                             1957.56  1966.00  1982.01  2014.13  2064.72
                             2116.97  2132.99  2173.80  2187.98  2194.70
                             2202.11  2216.86  2344.86  2350.62  2376.83
                             2401.12  2431.01  2554.81  4387.89  4463.20
                             4494.85  4513.89  4537.59  4571.34  4573.31
                             4592.13  4596.36  4612.83  4625.26  4632.78
                             5098.94  5140.66  5291.87

 Zero-point correction=                           0.271696 (Hartree/Particle)
 Thermal correction to Energy=                    0.287563
 Thermal correction to Enthalpy=                  0.288507
 Thermal correction to Gibbs Free Energy=         0.226549
 Sum of electronic and zero-point Energies=           -781.810854
 Sum of electronic and thermal Energies=              -781.794987
 Sum of electronic and thermal Enthalpies=            -781.794043
 Sum of electronic and thermal Free Energies=         -781.856001

                     E (Thermal)             CV                S
                      KCal/Mol        Cal/Mol-Kelvin    Cal/Mol-Kelvin
 Total                  180.448             61.726            130.402
 Electronic               0.000              0.000              0.000
 Translational            0.889              2.981             42.342
 Rotational               0.889              2.981             33.101
 Vibrational            178.671             55.764             54.960
 Vibration     1          0.593              1.986              6.792
 Vibration     2          0.593              1.985              6.418
 Vibration     3          0.596              1.975              4.574
 Vibration     4          0.597              1.972              4.387
 Vibration     5          0.602              1.954              3.604
 Vibration     6          0.612              1.922              2.933
 Vibration     7          0.624              1.885              2.485
 Vibration     8          0.634              1.853              2.223
 Vibration     9          0.638              1.841              2.137
 Vibration    10          0.665              1.754              1.696
 Vibration    11          0.671              1.739              1.634
 Vibration    12          0.694              1.669              1.403
 Vibration    13          0.698              1.657              1.370
 Vibration    14          0.732              1.562              1.138
 Vibration    15          0.754              1.501              1.017
 Vibration    16          0.774              1.448              0.926
 Vibration    17          0.777              1.442              0.916
 Vibration    18          0.802              1.377              0.818
 Vibration    19          0.804              1.373              0.813
 Vibration    20          0.881              1.193              0.597
 Vibration    21          0.907              1.136              0.541
 Vibration    22          0.921              1.107              0.514
 Vibration    23          0.928              1.093              0.501
 Vibration    24          0.965              1.019              0.439
 Vibration    25          0.977              0.995              0.421

 Optimization completed.
    -- Stationary point found.
 Normal termination of Gaussian 16 at Fri Dec 11 21:31:51 2020.

 ----------------------------------------------------------------------
 # B3LYP/6-311++G(d,p) empiricaldispersion=gd3bj scf=xqc pop=npa geom=c
 heck
 ----------------------------------------------------------------------

 --------------------------------------
 CID_43523591_JID_8582_Energie_neutraal
 --------------------------------------
 Structure from the checkpoint file:  "JID_8582.chk"
 Charge =  0 Multiplicity = 1

 SCF Done:  E(RB3LYP) =  -782.300382832     A.U. after   17 cycles
 Normal termination of Gaussian 16 at Fri Dec 11 21:39:03 2020.

 ----------------------------------------------------------------------
 # B3LYP/6-311++G(d,p) empiricaldispersion=gd3bj scf=xqc pop=npa geom=c
 heck
 ----------------------------------------------------------------------

 ------------------------------------
 CID_43523591_JID_8582_Energie_kation
 ------------------------------------
 Structure from the checkpoint file:  "JID_8582.chk"
 Charge =  1 Multiplicity = 2

 SCF Done:  E(UB3LYP) =  -782.015725307     A.U. after   25 cycles
 Normal termination of Gaussian 16 at Fri Dec 11 21:54:24 2020.
 Gaussian 16:  ES64L-G16RevA.03 25-Dec-2016

 ----------------------------------------------------------------------
 # B3LYP/6-311++G(d,p) empiricaldispersion=gd3bj scf=xqc pop=npa geom=c
 heck
 ----------------------------------------------------------------------

 -----------------------------------
 CID_43523591_JID_8582_Energie_anion
 -----------------------------------
 Structure from the checkpoint file:  "JID_8582.chk"
 Charge = -1 Multiplicity = 2

                         Standard orientation:
 ---------------------------------------------------------------------
 Center     Atomic      Atomic             Coordinates (Angstroms)
 Number     Number       Type             X           Y           Z
 ---------------------------------------------------------------------
      1          6           0       -0.991412    2.072249    1.815134
      2          6           0       -0.668222    1.010015    0.753599
      3          6           0       -1.909077    0.228648    0.363803
      4          6           0       -2.160981   -1.024648    0.932347
      5          7           0       -3.231112   -1.778413    0.660711
      6          6           0       -4.118075   -1.287912   -0.214145
      7          6           0       -3.970700   -0.051504   -0.844157
      8          6           0       -2.847019    0.716912   -0.549013
      9          7           0       -0.014057    1.631448   -0.410444
     10          6           0        1.361034    1.562384   -0.644162
     11          8           0        1.951437    2.520268   -1.124683
     12          6           0        2.047076    0.282285   -0.295149
     13          6           0        3.286282    0.383770    0.351633
     14          6           0        3.992044   -0.744773    0.748258
     15          6           0        3.457251   -2.006597    0.466531
     16          6           0        2.254376   -2.131724   -0.215147
     17          6           0        1.530598   -0.995477   -0.625029
     18          7           0        0.391224   -1.151287   -1.396920
     19          1           0       -1.693671    2.815004    1.417525
     20          1           0       -0.078470    2.588240    2.129367
     21          1           0       -1.456940    1.611147    2.691883
     22          1           0        0.053020    0.307611    1.178636
     23          1           0       -1.445910   -1.446707    1.638926
     24          1           0       -4.981556   -1.915861   -0.424633
     25          1           0       -4.716640    0.296226   -1.552150
     26          1           0       -2.693438    1.676320   -1.035780
     27          1           0       -0.345370    2.566257   -0.631592
     28          1           0        3.672554    1.379014    0.548255
     29          1           0        4.941214   -0.648126    1.265225
     30          1           0        3.989482   -2.903814    0.770901
     31          1           0        1.865904   -3.116581   -0.462784
     32          1           0       -0.210487   -0.344637   -1.490765
     33          1           0       -0.112632   -2.020242   -1.286002
 ---------------------------------------------------------------------

 SCF Done:  E(UB3LYP) =  -782.299857469     A.U. after   33 cycles
 SCF Done:  E(UB3LYP) =  -782.299857469     a.u. after    1 cycles

 The electronic state is 2-A.
 Alpha  occ. eigenvalues --  -18.95751 -14.20812 -14.19471 -14.16086 -10.13554
 Alpha  occ. eigenvalues --  -10.10376 -10.09712 -10.07239 -10.06665 -10.06596
 Alpha  occ. eigenvalues --  -10.05420 -10.04887 -10.04865 -10.04749 -10.04697
 Alpha  occ. eigenvalues --  -10.04573 -10.04547 -10.04331  -0.91045  -0.81196
 Alpha  occ. eigenvalues --   -0.80420  -0.79364  -0.71846  -0.68445  -0.65249
 Alpha  occ. eigenvalues --   -0.63398  -0.61707  -0.60892  -0.53628  -0.52125
 Alpha  occ. eigenvalues --   -0.50121  -0.48619  -0.47633  -0.45130  -0.40878
 Alpha  occ. eigenvalues --   -0.39766  -0.39617  -0.37730  -0.36189  -0.35235
 Alpha  occ. eigenvalues --   -0.33522  -0.33414  -0.31575  -0.31421  -0.31036
 Alpha  occ. eigenvalues --   -0.30387  -0.29606  -0.28195  -0.27942  -0.26941
 Alpha  occ. eigenvalues --   -0.26629  -0.26082  -0.25374  -0.23667  -0.22952
 Alpha  occ. eigenvalues --   -0.22869  -0.19710  -0.16350  -0.14985  -0.14146
 Alpha  occ. eigenvalues --   -0.13612  -0.12693  -0.11961  -0.09011   0.05246
 Alpha virt. eigenvalues --    0.07507   0.07915   0.08264   0.08803   0.09756
 Alpha virt. eigenvalues --    0.10031   0.10422   0.10920   0.11184   0.11477
 Alpha virt. eigenvalues --    0.11850   0.12304   0.13083   0.13699   0.14416

  Beta  occ. eigenvalues --  -18.95569 -14.20818 -14.19442 -14.15672 -10.13388
  Beta  occ. eigenvalues --  -10.10360 -10.09678 -10.07237 -10.06667 -10.06506
  Beta  occ. eigenvalues --  -10.05433 -10.04810 -10.04703 -10.04673 -10.04618
  Beta  occ. eigenvalues --  -10.04555 -10.04544 -10.04023  -0.90718  -0.80979
  Beta  occ. eigenvalues --   -0.80035  -0.79234  -0.71656  -0.68119  -0.64925
  Beta  occ. eigenvalues --   -0.63098  -0.61543  -0.60753  -0.53507  -0.51723
  Beta  occ. eigenvalues --   -0.49648  -0.48541  -0.47458  -0.44958  -0.40778
  Beta  occ. eigenvalues --   -0.39628  -0.39507  -0.37596  -0.36012  -0.35119
  Beta  occ. eigenvalues --   -0.33390  -0.33259  -0.31449  -0.31338  -0.30926
  Beta  occ. eigenvalues --   -0.30230  -0.29387  -0.28014  -0.27549  -0.26690
  Beta  occ. eigenvalues --   -0.26158  -0.25400  -0.25078  -0.23418  -0.22827
  Beta  occ. eigenvalues --   -0.22671  -0.19310  -0.14693  -0.14555  -0.13592
  Beta  occ. eigenvalues --   -0.12878  -0.12158  -0.11511  -0.08655
  Beta virt. eigenvalues --    0.07806   0.08214   0.08703   0.09409   0.09714
  Beta virt. eigenvalues --    0.09906   0.10455   0.10648   0.10982   0.11318
  Beta virt. eigenvalues --    0.11543   0.11830   0.12296   0.13084   0.13711

 Mulliken charges and spin densities:
               1          2
     1  C   -0.616700  -0.034159
     2  C   -0.562425  -0.140376
     3  C    1.034020   0.013023
     4  C   -0.694615   0.034415
     5  N   -0.066165   0.181466
     6  C   -0.372417   0.022293
     7  C   -0.149646   0.080237
     8  C   -0.331353   0.364540
     9  N   -0.134566   0.028850
    10  C   -0.583224   0.096848
    11  O   -0.347674   0.059806
    12  C    1.034058   0.096293
    13  C   -0.100834   0.126805
    14  C   -0.470009  -0.051576
    15  C   -0.236302   0.144737
    16  C    0.014648  -0.016068
    17  C   -0.651877   0.012874
    18  N   -0.211444   0.004270
    19  H    0.149261  -0.000878
    20  H    0.147494  -0.000101
    21  H    0.152954   0.004612
    22  H    0.152552  -0.003282
    23  H    0.156271  -0.008279
    24  H    0.127143   0.001321
    25  H    0.130673   0.004047
    26  H    0.098302  -0.004052
    27  H    0.282240   0.002406
    28  H    0.175837  -0.006099
    29  H    0.117884   0.004185
    30  H    0.124182  -0.012318
    31  H    0.105983  -0.000849
    32  H    0.289650  -0.003500
    33  H    0.236100  -0.001490
 Sum of Mulliken charges =  -1.00000   1.00000

 Dipole moment (field-independent basis, Debye):
    X=             -0.7352    Y=              0.5245    Z=              1.5886  Tot=              1.8274
 Quadrupole moment (field-independent basis, Debye-Ang):
   XX=           -160.6475   YY=           -129.9743   ZZ=           -122.0693
   XY=            -14.6886   XZ=             11.6967   YZ=              8.5428

 Summary of Natural Population Analysis:

                                       Natural Population
                Natural  -----------------------------------------------
    Atom  No    Charge         Core      Valence    Rydberg      Total
 -----------------------------------------------------------------------
      C    1   -0.28258      0.99965     2.27880    0.00413     3.28258
      C    2   -0.02241      0.99955     2.01002    0.01284     3.02241
      C    3   -0.04551      0.99948     2.03494    0.01109     3.04551
      C    4    0.03572      0.99953     1.95070    0.01405     2.96428
      N    5   -0.18905      0.99971     2.67631    0.01302     3.68905
      C    6    0.01287      0.99961     1.97198    0.01555     2.98713
      C    7   -0.11847      0.99957     2.10998    0.00892     3.11847
      C    8   -0.04157      0.99951     2.03357    0.00849     3.04157
      N    9   -0.33830      0.99968     2.82693    0.01169     3.83830
      C   10    0.36418      0.99962     1.61423    0.02196     2.63582
      O   11   -0.30770      0.99988     3.30188    0.00595     4.30770
      C   12   -0.09226      0.99943     2.08066    0.01218     3.09226
      C   13   -0.05053      0.99954     2.04251    0.00847     3.05053
      C   14   -0.14629      0.99957     2.13686    0.00987     3.14629
      C   15   -0.05880      0.99958     2.04997    0.00925     3.05880
      C   16   -0.13012      0.99953     2.12162    0.00897     3.13012
      C   17    0.10360      0.99948     1.88702    0.00990     2.89640
      N   18   -0.39481      0.99971     2.88603    0.00908     3.89481
      H   19    0.09509      0.00000     0.40401    0.00091     0.40491
      H   20    0.09844      0.00000     0.40076    0.00080     0.40156
      H   21    0.10204      0.00000     0.39722    0.00074     0.39796
      H   22    0.10957      0.00000     0.38871    0.00172     0.39043
      H   23    0.08247      0.00000     0.41585    0.00169     0.41753
      H   24    0.08022      0.00000     0.41849    0.00128     0.41978
      H   25    0.09303      0.00000     0.40570    0.00126     0.40697
      H   26    0.09162      0.00000     0.40706    0.00132     0.40838
      H   27    0.18659      0.00000     0.31169    0.00172     0.31341
      H   28    0.10095      0.00000     0.39804    0.00101     0.39905
      H   29    0.09336      0.00000     0.40562    0.00102     0.40664
      H   30    0.08965      0.00000     0.40934    0.00101     0.41035
      H   31    0.09250      0.00000     0.40607    0.00143     0.40750
      H   32    0.20068      0.00000     0.29788    0.00144     0.29932
      H   33    0.18582      0.00000     0.31274    0.00144     0.31418
 =======================================================================
   * Total *   -0.00000     17.99262    45.79320    0.21419    64.00000

 Normal termination of Gaussian 16 at Fri Dec 11 22:15:35 2020.
