 Gaussian 16, Revision A.03,

 -----------------------------------------------------------
 # opt freq B3LYP/6-31G(d) empiricaldispersion=gd3bj scf=xqc
 -----------------------------------------------------------

 -------------------------------
 CID_148176355_JID_1799_neutraal
 -------------------------------
 Symbolic Z-matrix:
 Charge =  0 Multiplicity = 1

 SCF Done:  E(RB3LYP) =  -426.157225607     A.U. after   14 cycles
 SCF Done:  E(RB3LYP) =  -426.191497579     A.U. after   13 cycles
 SCF Done:  E(RB3LYP) =  -426.218012652     A.U. after   13 cycles
 SCF Done:  E(RB3LYP) =  -426.222802463     A.U. after   12 cycles
 SCF Done:  E(RB3LYP) =  -426.225173840     A.U. after   12 cycles
 SCF Done:  E(RB3LYP) =  -426.225552696     A.U. after   12 cycles
 SCF Done:  E(RB3LYP) =  -426.225725153     A.U. after   11 cycles
 SCF Done:  E(RB3LYP) =  -426.225879568     A.U. after   10 cycles
 SCF Done:  E(RB3LYP) =  -426.226171472     A.U. after   12 cycles
 SCF Done:  E(RB3LYP) =  -426.226405955     A.U. after   12 cycles
 SCF Done:  E(RB3LYP) =  -426.230804112     A.U. after   12 cycles
 SCF Done:  E(RB3LYP) =  -426.230920400     A.U. after   11 cycles
 SCF Done:  E(RB3LYP) =  -426.230944652     A.U. after   10 cycles
 SCF Done:  E(RB3LYP) =  -426.230956744     A.U. after    9 cycles
 SCF Done:  E(RB3LYP) =  -426.230960804     A.U. after    9 cycles
 SCF Done:  E(RB3LYP) =  -426.230961464     A.U. after    8 cycles
 Optimization completed.
    -- Stationary point found.
 Normal termination of Gaussian 16 at Tue Dec  8 21:28:34 2020.

 --------------------------------------------------------------------
 #N Geom=AllCheck Guess=TCheck SCRF=Check GenChk RB3LYP/6-31G(d) Freq
 --------------------------------------------------------------------

 Structure from the checkpoint file:  "JID_1799.chk"
 -------------------------------
 CID_148176355_JID_1799_neutraal
 -------------------------------
 Charge =  0 Multiplicity = 1

 SCF Done:  E(RB3LYP) =  -426.230961464     A.U. after    1 cycles

  Exact polarizability: 130.186  -8.506 107.516   4.897  -3.579  91.494
 Approx polarizability: 236.468 -56.532 222.647  13.665 -14.763 149.097

                      1                      2                      3
                      A                      A                      A
 Frequencies --    108.9497               176.6722               212.0005
 Red. masses --      2.5653                 2.4059                 2.3648
 Frc consts  --      0.0179                 0.0442                 0.0626
 IR Inten    --      0.6216                 0.2447                 1.2472

                      4                      5                      6
                      A                      A                      A
 Frequencies --    266.2214               320.1921               329.3188
 Red. masses --      2.9733                 2.5353                 3.3717
 Frc consts  --      0.1242                 0.1531                 0.2154
 IR Inten    --      7.2304                 6.2245                 8.4631

                      7                      8                      9
                      A                      A                      A
 Frequencies --    398.0148               449.6991               478.3745
 Red. masses --      2.6856                 3.2538                 4.1407
 Frc consts  --      0.2507                 0.3877                 0.5583
 IR Inten    --      7.6535                 3.7700                26.0410

                     10                     11                     12
                      A                      A                      A
 Frequencies --    560.3606               574.6810               635.1356
 Red. masses --      3.1613                 2.8151                 2.9367
 Frc consts  --      0.5849                 0.5478                 0.6980
 IR Inten    --      4.8135                34.4058                47.7177

                     13                     14                     15
                      A                      A                      A
 Frequencies --    688.5523               710.2042               740.8158
 Red. masses --      4.3237                 3.7731                 1.5819
 Frc consts  --      1.2077                 1.1213                 0.5115
 IR Inten    --     14.5486                 1.9641                15.1727

                     16                     17                     18
                      A                      A                      A
 Frequencies --    789.4842               835.8931               868.1433
 Red. masses --      2.6342                 1.9194                 2.0961
 Frc consts  --      0.9674                 0.7902                 0.9308
 IR Inten    --      6.1380                 8.9948                 0.1964

                     19                     20                     21
                      A                      A                      A
 Frequencies --    897.0571               909.1893               919.7374
 Red. masses --      1.8667                 2.2831                 2.0341
 Frc consts  --      0.8850                 1.1120                 1.0138
 IR Inten    --      0.4223                 5.0643                13.1792

                     22                     23                     24
                      A                      A                      A
 Frequencies --    924.7975               953.6619               995.2990
 Red. masses --      2.1358                 1.8376                 1.7999
 Frc consts  --      1.0762                 0.9847                 1.0505
 IR Inten    --     10.0344                 5.5594                12.2259

                     25                     26                     27
                      A                      A                      A
 Frequencies --   1000.2230              1013.0302              1038.8750
 Red. masses --      1.7478                 1.7358                 2.2270
 Frc consts  --      1.0302                 1.0495                 1.4161
 IR Inten    --     13.2351                12.1267                 0.3821

                     28                     29                     30
                      A                      A                      A
 Frequencies --   1069.4052              1095.7338              1108.0613
 Red. masses --      2.0418                 2.0179                 1.9735
 Frc consts  --      1.3758                 1.4275                 1.4276
 IR Inten    --      2.7984                 2.1475                 0.2526

                     31                     32                     33
                      A                      A                      A
 Frequencies --   1122.6445              1149.0336              1176.3513
 Red. masses --      1.8701                 1.5291                 2.0032
 Frc consts  --      1.3887                 1.1895                 1.6333
 IR Inten    --      1.3952                 1.9207                 8.5562

                     34                     35                     36
                      A                      A                      A
 Frequencies --   1181.6670              1204.6237              1229.9901
 Red. masses --      1.5947                 1.4224                 1.4508
 Frc consts  --      1.3119                 1.2161                 1.2932
 IR Inten    --      2.3164                 1.7390                 1.4498

                     37                     38                     39
                      A                      A                      A
 Frequencies --   1238.6125              1259.6534              1273.4854
 Red. masses --      1.6861                 1.3470                 1.3447
 Frc consts  --      1.5241                 1.2593                 1.2849
 IR Inten    --      4.2039                 2.9762                 9.9839

                     40                     41                     42
                      A                      A                      A
 Frequencies --   1291.2758              1316.0366              1344.1467
 Red. masses --      1.5397                 1.7383                 1.4866
 Frc consts  --      1.5126                 1.7738                 1.5825
 IR Inten    --      5.7880                 0.4160                 5.8914

                     43                     44                     45
                      A                      A                      A
 Frequencies --   1349.0906              1370.1299              1422.0148
 Red. masses --      1.4976                 1.4436                 3.6401
 Frc consts  --      1.6060                 1.5967                 4.3368
 IR Inten    --      0.4152                 0.0343                 1.5943

                     46                     47                     48
                      A                      A                      A
 Frequencies --   1452.3954              1504.2155              1515.1700
 Red. masses --      4.4683                 1.6786                 1.5183
 Frc consts  --      5.5534                 2.2378                 2.0537
 IR Inten    --      2.7045                 1.9025                 1.7648

                     49                     50                     51
                      A                      A                      A
 Frequencies --   1516.0697              1519.8628              1536.1786
 Red. masses --      1.3269                 1.0890                 1.1011
 Frc consts  --      1.7970                 1.4822                 1.5310
 IR Inten    --      2.1961                 2.6361                 1.0157

                     52                     53                     54
                      A                      A                      A
 Frequencies --   3048.1017              3050.6403              3064.2358
 Red. masses --      1.0605                 1.0660                 1.0620
 Frc consts  --      5.8055                 5.8451                 5.8749
 IR Inten    --     26.6311                44.4007                40.6092

                     55                     56                     57
                      A                      A                      A
 Frequencies --   3066.6426              3087.4907              3098.1382
 Red. masses --      1.0618                 1.0978                 1.1031
 Frc consts  --      5.8832                 6.1659                 6.2382
 IR Inten    --     63.8792                29.6792                26.7461

                     58                     59                     60
                      A                      A                      A
 Frequencies --   3105.9957              3109.9671              3123.6070
 Red. masses --      1.0867                 1.1037                 1.0892
 Frc consts  --      6.1769                 6.2893                 6.2611
 IR Inten    --     38.8584                36.5813                25.1316

                     61                     62                     63
                      A                      A                      A
 Frequencies --   3129.0972              3196.2503              3230.3514
 Red. masses --      1.1054                 1.0888                 1.1058
 Frc consts  --      6.3769                 6.5533                 6.7989
 IR Inten    --     14.9045                22.5550                13.3058

 - Thermochemistry -
 -------------------
 Temperature   298.150 Kelvin.  Pressure   1.00000 Atm.
 Atom     1 has atomic number  6 and mass  12.00000

 Molecular mass:   144.09390 amu.
 Principal axes and moments of inertia in atomic units:
                           1         2         3
     Eigenvalues --   790.543911761.110531930.73016
           X            0.99988   0.01527   0.00338
           Y           -0.01531   0.99981   0.01211
           Z           -0.00319  -0.01216   0.99992
 This molecule is an asymmetric top.
 Rotational symmetry number  1.
 Warning -- assumption of classical behavior for rotation
           may cause significant error
 Rotational temperatures (Kelvin)      0.10956     0.04918     0.04486
 Rotational constants (GHZ):           2.28291     1.02477     0.93475
 Zero-point vibrational energy     516493.4 (Joules/Mol)
                                  123.44488 (Kcal/Mol)
 Warning -- explicit consideration of  11 degrees of freedom as
           vibrations may cause significant error
 Vibrational temperatures:    156.75   254.19   305.02   383.03   460.68
          (Kelvin)            473.82   572.65   647.02   688.27   806.23
                              826.84   913.82   990.67  1021.83  1065.87
                             1135.89  1202.66  1249.06  1290.67  1308.12
                             1323.30  1330.58  1372.11  1432.01  1439.10
                             1457.52  1494.71  1538.64  1576.52  1594.25
                             1615.24  1653.20  1692.51  1700.16  1733.18
                             1769.68  1782.09  1812.36  1832.26  1857.86
                             1893.48  1933.93  1941.04  1971.31  2045.96
                             2089.67  2164.23  2179.99  2181.29  2186.74
                             2210.22  4385.54  4389.19  4408.75  4412.21
                             4442.21  4457.53  4468.84  4474.55  4494.17
                             4502.07  4598.69  4647.76

 Zero-point correction=                           0.196722 (Hartree/Particle)
 Thermal correction to Energy=                    0.205211
 Thermal correction to Enthalpy=                  0.206155
 Thermal correction to Gibbs Free Energy=         0.163797
 Sum of electronic and zero-point Energies=           -426.034240
 Sum of electronic and thermal Energies=              -426.025751
 Sum of electronic and thermal Enthalpies=            -426.024807
 Sum of electronic and thermal Free Energies=         -426.067164

                     E (Thermal)             CV                S
                      KCal/Mol        Cal/Mol-Kelvin    Cal/Mol-Kelvin
 Total                  128.772             35.829             89.150
 Electronic               0.000              0.000              0.000
 Translational            0.889              2.981             40.807
 Rotational               0.889              2.981             29.376
 Vibrational            126.994             29.867             18.967
 Vibration     1          0.606              1.942              3.288
 Vibration     2          0.628              1.871              2.363
 Vibration     3          0.643              1.823              2.026
 Vibration     4          0.672              1.735              1.621
 Vibration     5          0.706              1.635              1.309
 Vibration     6          0.712              1.617              1.263
 Vibration     7          0.764              1.474              0.970
 Vibration     8          0.809              1.362              0.797
 Vibration     9          0.835              1.298              0.714
 Vibration    10          0.916              1.117              0.523
 Vibration    11          0.931              1.086              0.495

                           ! Non-Optimized Parameters !
 Normal termination of Gaussian 16 at Tue Dec  8 21:33:45 2020.

 ----------------------------------------------------------------------
 # B3LYP/6-311++G(d,p) empiricaldispersion=gd3bj scf=xqc pop=npa geom=c
 heck
 ----------------------------------------------------------------------

 ---------------------------------------
 CID_148176355_JID_1799_Energie_neutraal
 ---------------------------------------
 Structure from the checkpoint file:  "JID_1799.chk"
 Charge =  0 Multiplicity = 1

 SCF Done:  E(RB3LYP) =  -426.336658703     A.U. after   16 cycles
 Normal termination of Gaussian 16 at Tue Dec  8 21:36:07 2020.

 ----------------------------------------------------------------------
 # B3LYP/6-311++G(d,p) empiricaldispersion=gd3bj scf=xqc pop=npa geom=c
 heck
 ----------------------------------------------------------------------

 -------------------------------------
 CID_148176355_JID_1799_Energie_kation
 -------------------------------------
 Structure from the checkpoint file:  "JID_1799.chk"
 Charge =  1 Multiplicity = 2

 SCF Done:  E(UB3LYP) =  -426.079498390     A.U. after   19 cycles
 Normal termination of Gaussian 16 at Tue Dec  8 21:39:32 2020.
 Gaussian 16:  ES64L-G16RevA.03 25-Dec-2016

 ----------------------------------------------------------------------
 # B3LYP/6-311++G(d,p) empiricaldispersion=gd3bj scf=xqc pop=npa geom=c
 heck
 ----------------------------------------------------------------------

 ------------------------------------
 CID_148176355_JID_1799_Energie_anion
 ------------------------------------
 Structure from the checkpoint file:  "JID_1799.chk"
 Charge = -1 Multiplicity = 2

                         Standard orientation:
 ---------------------------------------------------------------------
 Center     Atomic      Atomic             Coordinates (Angstroms)
 Number     Number       Type             X           Y           Z
 ---------------------------------------------------------------------
      1          6           0       -2.669063   -0.443796    0.093483
      2          6           0       -2.064987    0.653302    0.997716
      3          6           0       -0.539062    0.504183    0.854109
      4          6           0       -0.336201   -0.194544   -0.532326
      5          6           0       -1.697751   -0.579904   -1.101145
      6          6           0        0.089827    1.213465   -0.254534
      7          6           0        1.494311    1.650438   -0.561305
      8          6           0        1.947054    0.254077   -0.317570
      9          6           0        0.990289   -0.908297   -0.737815
     10          6           0        1.510185   -1.572948    0.515743
     11          6           0        2.274882   -0.485329    0.867598
     12          1           0       -2.682154   -1.391071    0.646851
     13          1           0       -3.699617   -0.228301   -0.210017
     14          1           0       -2.370615    0.539077    2.042891
     15          1           0       -2.386026    1.647737    0.669670
     16          1           0        0.021330    0.176928    1.731297
     17          1           0       -1.980011    0.086977   -1.924844
     18          1           0       -1.683300   -1.601221   -1.498139
     19          1           0        1.902918    2.365373    0.157957
     20          1           0        1.619456    2.026312   -1.581067
     21          1           0        1.111842   -1.400614   -1.706724
     22          1           0        1.295342   -2.531302    0.976216
     23          1           0        2.853934   -0.233779    1.752192
 ---------------------------------------------------------------------

 SCF Done:  E(UB3LYP) =  -426.336929546     A.U. after   29 cycles

 The electronic state is 2-A.
 Alpha  occ. eigenvalues --  -10.03450 -10.02869 -10.02854 -10.02637 -10.02592
 Alpha  occ. eigenvalues --  -10.02207 -10.02200 -10.01369 -10.00542 -10.00127
 Alpha  occ. eigenvalues --  -10.00062  -0.75834  -0.69156  -0.63244  -0.58217
 Alpha  occ. eigenvalues --   -0.57098  -0.50119  -0.45481  -0.43999  -0.39300
 Alpha  occ. eigenvalues --   -0.37612  -0.35583  -0.33810  -0.31478  -0.30596
 Alpha  occ. eigenvalues --   -0.29384  -0.27740  -0.26607  -0.23621  -0.21808
 Alpha  occ. eigenvalues --   -0.21272  -0.20697  -0.19904  -0.18689  -0.15487
 Alpha  occ. eigenvalues --   -0.13041  -0.11546  -0.10311  -0.03530   0.05364
 Alpha virt. eigenvalues --    0.09030   0.10045   0.10271   0.10416   0.11677
 Alpha virt. eigenvalues --    0.12085   0.12361   0.12801   0.12944   0.14169
 Alpha virt. eigenvalues --    0.14890   0.15183   0.16633   0.17330   0.17769

  Beta  occ. eigenvalues --  -10.03440 -10.02849 -10.02807 -10.02576 -10.02547
  Beta  occ. eigenvalues --  -10.02216 -10.02198 -10.01484 -10.00223  -9.99654
  Beta  occ. eigenvalues --   -9.99615  -0.75383  -0.68862  -0.62870  -0.57964
  Beta  occ. eigenvalues --   -0.56991  -0.50078  -0.45314  -0.43117  -0.39169
  Beta  occ. eigenvalues --   -0.37425  -0.35436  -0.33504  -0.31133  -0.30337
  Beta  occ. eigenvalues --   -0.29267  -0.27429  -0.26492  -0.23462  -0.21524
  Beta  occ. eigenvalues --   -0.21071  -0.20636  -0.19854  -0.18402  -0.15243
  Beta  occ. eigenvalues --   -0.12637  -0.10899  -0.09857  -0.00594
  Beta virt. eigenvalues --    0.08688   0.10025   0.10254   0.10368   0.11306
  Beta virt. eigenvalues --    0.11675   0.12234   0.12383   0.12907   0.13403
  Beta virt. eigenvalues --    0.14198   0.14777   0.15186   0.16847   0.17507

 Mulliken charges and spin densities:
               1          2
     1  C    0.117397  -0.340114
     2  C   -0.014680  -0.431522
     3  C   -0.820549   0.672134
     4  C   -0.096973   0.447101
     5  C   -0.365526  -0.036510
     6  C    0.836135  -0.603655
     7  C   -0.442817  -0.078181
     8  C    0.279032   0.313772
     9  C   -0.043179  -0.089234
    10  C   -0.577821   0.338372
    11  C   -0.276467  -0.143858
    12  H    0.080222   0.016734
    13  H   -0.047466   0.156487
    14  H   -0.103995   0.204063
    15  H   -0.129913   0.238093
    16  H    0.088562   0.052114
    17  H   -0.036260   0.156771
    18  H    0.062819   0.019038
    19  H    0.102382  -0.002123
    20  H    0.108766   0.020014
    21  H    0.213673  -0.002031
    22  H   -0.012214   0.093084
    23  H    0.078870  -0.000548
 Sum of Mulliken charges =  -1.00000   1.00000

 Dipole moment (field-independent basis, Debye):
    X=             -0.6769    Y=             -1.2100    Z=              0.5019  Tot=              1.4746
 Quadrupole moment (field-independent basis, Debye-Ang):
   XX=           -100.0618   YY=            -88.0454   ZZ=            -79.5418
   XY=              8.1722   XZ=              1.6528   YZ=              2.7948

 Summary of Natural Population Analysis:

                                       Natural Population
                Natural  -----------------------------------------------
    Atom  No    Charge         Core      Valence    Rydberg      Total
 -----------------------------------------------------------------------
      C    1   -0.18644      0.99964     2.17815    0.00865     3.18644
      C    2   -0.18697      0.99962     2.17692    0.01043     3.18697
      C    3   -0.13027      0.99951     2.11786    0.01290     3.13027
      C    4   -0.03703      0.99949     2.02296    0.01458     3.03703
      C    5   -0.18885      0.99958     2.17965    0.00962     3.18885
      C    6    0.09453      0.99936     1.89231    0.01379     2.90547
      C    7   -0.21752      0.99950     2.20457    0.01345     3.21752
      C    8    0.04010      0.99955     1.94560    0.01475     2.95990
      C    9   -0.12965      0.99951     2.11712    0.01302     3.12965
      C   10   -0.00979      0.99956     1.99640    0.01384     3.00979
      C   11   -0.16331      0.99945     2.15403    0.00983     3.16331
      H   12    0.08862      0.00000     0.40964    0.00174     0.41138
      H   13    0.08941      0.00000     0.40903    0.00156     0.41059
      H   14    0.09162      0.00000     0.40693    0.00145     0.40838
      H   15    0.09647      0.00000     0.40010    0.00343     0.40353
      H   16    0.10244      0.00000     0.39503    0.00253     0.39756
      H   17    0.09561      0.00000     0.40250    0.00189     0.40439
      H   18    0.09271      0.00000     0.40627    0.00102     0.40729
      H   19    0.09948      0.00000     0.39935    0.00117     0.40052
      H   20    0.09163      0.00000     0.40658    0.00179     0.40837
      H   21    0.09786      0.00000     0.40108    0.00106     0.40214
      H   22    0.08202      0.00000     0.41670    0.00129     0.41798
      H   23    0.08734      0.00000     0.41168    0.00098     0.41266
 =======================================================================
   * Total *   -0.00000     10.99479    27.85043    0.15478    39.00000

 Normal termination of Gaussian 16 at Tue Dec  8 21:44:45 2020.
