 Gaussian 16, Revision A.03,

 -----------------------------------------------------------
 # opt freq B3LYP/6-31G(d) empiricaldispersion=gd3bj scf=xqc
 -----------------------------------------------------------

 ------------------------------
 CID_64055743_JID_7197_neutraal
 ------------------------------
 Symbolic Z-matrix:
 Charge =  0 Multiplicity = 1

 SCF Done:  E(RB3LYP) =  -1055.66931535     A.U. after   14 cycles
 SCF Done:  E(RB3LYP) =  -1055.67585664     A.U. after   12 cycles
 SCF Done:  E(RB3LYP) =  -1055.67321130     A.U. after   12 cycles
 SCF Done:  E(RB3LYP) =  -1055.67696316     A.U. after   12 cycles
 SCF Done:  E(RB3LYP) =  -1055.67783990     A.U. after   12 cycles
 SCF Done:  E(RB3LYP) =  -1055.67812770     A.U. after   11 cycles
 SCF Done:  E(RB3LYP) =  -1055.67822942     A.U. after   10 cycles
 SCF Done:  E(RB3LYP) =  -1055.67833240     A.U. after   10 cycles
 SCF Done:  E(RB3LYP) =  -1055.67840525     A.U. after   11 cycles
 SCF Done:  E(RB3LYP) =  -1055.67844819     A.U. after   11 cycles
 SCF Done:  E(RB3LYP) =  -1055.67938974     A.U. after   10 cycles
 SCF Done:  E(RB3LYP) =  -1055.67939285     A.U. after    9 cycles
 SCF Done:  E(RB3LYP) =  -1055.67939302     A.U. after    7 cycles
 SCF Done:  E(RB3LYP) =  -1055.67939303     A.U. after    7 cycles
 SCF Done:  E(RB3LYP) =  -1055.67939307     A.U. after    6 cycles
 Optimization completed.
    -- Stationary point found.
 Normal termination of Gaussian 16 at Sun Dec 13 16:40:05 2020.

 --------------------------------------------------------------------
 #N Geom=AllCheck Guess=TCheck SCRF=Check GenChk RB3LYP/6-31G(d) Freq
 --------------------------------------------------------------------

 Structure from the checkpoint file:  "JID_7197.chk"
 ------------------------------
 CID_64055743_JID_7197_neutraal
 ------------------------------
 Charge =  0 Multiplicity = 1

 SCF Done:  E(RB3LYP) =  -1055.67939307     A.U. after    1 cycles

  Exact polarizability: 215.855  -5.840 148.476   6.843  10.244 145.092
 Approx polarizability: 279.851  -8.982 221.478  15.561  23.693 246.094

                      1                      2                      3
                      A                      A                      A
 Frequencies --     18.9107                24.4805                39.5053
 Red. masses --      4.9241                 3.0768                 3.2485
 Frc consts  --      0.0010                 0.0011                 0.0030
 IR Inten    --      0.1213                 0.1855                 0.1116

                      4                      5                      6
                      A                      A                      A
 Frequencies --     46.1906                64.5061                96.9018
 Red. masses --      3.4868                 5.0218                 3.6931
 Frc consts  --      0.0044                 0.0123                 0.0204
 IR Inten    --      0.0832                 0.0584                 0.2301

                      7                      8                      9
                      A                      A                      A
 Frequencies --    120.2522               145.7792               155.9053
 Red. masses --      3.5855                 3.4802                 2.0422
 Frc consts  --      0.0305                 0.0436                 0.0292
 IR Inten    --      0.6807                 0.5934                 0.6162

                     10                     11                     12
                      A                      A                      A
 Frequencies --    194.7326               221.0326               231.0273
 Red. masses --      2.0185                 1.9519                 1.4292
 Frc consts  --      0.0451                 0.0562                 0.0449
 IR Inten    --      1.6757                 0.7819                 1.0653

                     13                     14                     15
                      A                      A                      A
 Frequencies --    235.9831               264.3805               289.0192
 Red. masses --      2.2819                 1.4526                 2.8338
 Frc consts  --      0.0749                 0.0598                 0.1395
 IR Inten    --      0.5648                 0.7006                 2.1309

                     16                     17                     18
                      A                      A                      A
 Frequencies --    290.5242               341.4582               369.8300
 Red. masses --      2.4895                 2.1995                 2.4383
 Frc consts  --      0.1238                 0.1511                 0.1965
 IR Inten    --      0.3648                 0.3150                 0.0576

                     19                     20                     21
                      A                      A                      A
 Frequencies --    406.7638               433.5189               459.1797
 Red. masses --      2.3777                 2.3199                 4.0713
 Frc consts  --      0.2318                 0.2569                 0.5058
 IR Inten    --      0.1303                 2.5983                 1.3374

                     22                     23                     24
                      A                      A                      A
 Frequencies --    480.7746               493.0906               545.2853
 Red. masses --      2.4177                 2.6038                 3.7323
 Frc consts  --      0.3293                 0.3730                 0.6538
 IR Inten    --      2.4574                 4.2337                 1.1353

                     25                     26                     27
                      A                      A                      A
 Frequencies --    574.3639               611.5857               633.0009
 Red. masses --      2.6970                 3.5048                 2.9839
 Frc consts  --      0.5242                 0.7724                 0.7044
 IR Inten    --      5.9187                 8.7461                12.9012

                     28                     29                     30
                      A                      A                      A
 Frequencies --    650.9824               673.7401               681.4221
 Red. masses --      3.7303                 3.4329                 1.3356
 Frc consts  --      0.9314                 0.9181                 0.3654
 IR Inten    --      6.8385                 4.6014                 1.5573

                     31                     32                     33
                      A                      A                      A
 Frequencies --    735.2209               741.1900               781.3144
 Red. masses --      1.9579                 1.5968                 1.2809
 Frc consts  --      0.6235                 0.5168                 0.4607
 IR Inten    --     14.9772                70.6671                43.4276

                     34                     35                     36
                      A                      A                      A
 Frequencies --    806.1373               829.9454               855.3044
 Red. masses --      1.5222                 4.3990                 2.0857
 Frc consts  --      0.5828                 1.7853                 0.8990
 IR Inten    --     23.4225                 4.1001                 7.8877

                     37                     38                     39
                      A                      A                      A
 Frequencies --    866.2942               881.9355               888.3728
 Red. masses --      3.7737                 1.9734                 1.4700
 Frc consts  --      1.6686                 0.9044                 0.6835
 IR Inten    --     24.2630                 0.9325                 0.5355

                     40                     41                     42
                      A                      A                      A
 Frequencies --    907.6415               920.8152               932.6433
 Red. masses --      2.8883                 1.8507                 2.1869
 Frc consts  --      1.4019                 0.9245                 1.1207
 IR Inten    --      3.6319                 1.1831                 2.9670

                     43                     44                     45
                      A                      A                      A
 Frequencies --    936.7753               944.1472               956.8478
 Red. masses --      1.2449                 2.0217                 1.5388
 Frc consts  --      0.6437                 1.0618                 0.8301
 IR Inten    --      1.6998                 2.5254                 1.3904

                     46                     47                     48
                      A                      A                      A
 Frequencies --    978.1244               983.8220              1005.0669
 Red. masses --      1.5809                 2.5329                 2.7655
 Frc consts  --      0.8911                 1.4444                 1.6459
 IR Inten    --      2.9341                 1.8610                31.7009

                     49                     50                     51
                      A                      A                      A
 Frequencies --   1013.3558              1053.8297              1106.3088
 Red. masses --      3.1758                 2.0844                 2.4908
 Frc consts  --      1.9214                 1.3639                 1.7961
 IR Inten    --      1.0388                 7.4822                 7.6663

                     52                     53                     54
                      A                      A                      A
 Frequencies --   1111.5180              1119.4841              1142.5015
 Red. masses --      1.9270                 1.1107                 2.4522
 Frc consts  --      1.4027                 0.8202                 1.8859
 IR Inten    --      3.6434                 4.1985                29.4786

                     55                     56                     57
                      A                      A                      A
 Frequencies --   1152.1090              1155.3650              1161.8097
 Red. masses --      1.8779                 2.1283                 1.9587
 Frc consts  --      1.4686                 1.6739                 1.5577
 IR Inten    --     21.0834                38.6779                 9.3216

                     58                     59                     60
                      A                      A                      A
 Frequencies --   1190.0207              1196.8578              1209.1550
 Red. masses --      1.7291                 1.5849                 1.9653
 Frc consts  --      1.4427                 1.3376                 1.6930
 IR Inten    --      2.0272                 7.4516                55.4200

                     61                     62                     63
                      A                      A                      A
 Frequencies --   1233.1426              1238.3535              1264.5719
 Red. masses --      1.4050                 1.6404                 1.4905
 Frc consts  --      1.2588                 1.4821                 1.4044
 IR Inten    --      5.4789                 1.9886                 1.6250

                     64                     65                     66
                      A                      A                      A
 Frequencies --   1273.1185              1279.2516              1303.7065
 Red. masses --      1.1716                 1.2573                 1.2377
 Frc consts  --      1.1188                 1.2122                 1.2395
 IR Inten    --      0.8630                10.7434                 0.2837

                     67                     68                     69
                      A                      A                      A
 Frequencies --   1324.6293              1339.9354              1346.4758
 Red. masses --      1.4250                 1.3942                 1.4451
 Frc consts  --      1.4731                 1.4748                 1.5437
 IR Inten    --      9.0157                10.6899                 7.6072

                     70                     71                     72
                      A                      A                      A
 Frequencies --   1360.9507              1369.4435              1377.3887
 Red. masses --      1.3179                 1.3546                 1.4225
 Frc consts  --      1.4382                 1.4967                 1.5901
 IR Inten    --     26.1833                 7.2038                27.2267

                     73                     74                     75
                      A                      A                      A
 Frequencies --   1388.0494              1401.8936              1411.0495
 Red. masses --      1.2725                 1.3975                 1.2554
 Frc consts  --      1.4445                 1.6182                 1.4727
 IR Inten    --      3.9218                 1.9075                 0.2313

                     76                     77                     78
                      A                      A                      A
 Frequencies --   1423.4032              1430.8243              1436.3843
 Red. masses --      1.2692                 1.3142                 2.3241
 Frc consts  --      1.5151                 1.5852                 2.8252
 IR Inten    --     15.9618                 5.6039                 3.9628

                     79                     80                     81
                      A                      A                      A
 Frequencies --   1443.0945              1451.8617              1467.1298
 Red. masses --      1.2515                 1.5703                 5.6398
 Frc consts  --      1.5355                 1.9502                 7.1524
 IR Inten    --     10.0119                 5.0522                14.2516

                     82                     83                     84
                      A                      A                      A
 Frequencies --   1504.9614              1506.3115              1514.9118
 Red. masses --      1.1608                 1.1053                 1.0495
 Frc consts  --      1.5491                 1.4776                 1.4191
 IR Inten    --     27.3571                 1.7578                 1.1492

                     85                     86                     87
                      A                      A                      A
 Frequencies --   1517.1653              1518.7520              1521.1190
 Red. masses --      1.0842                 1.0541                 1.0930
 Frc consts  --      1.4704                 1.4325                 1.4900
 IR Inten    --      7.3198                 4.1547                 7.9477

                     88                     89                     90
                      A                      A                      A
 Frequencies --   1527.9023              1537.5653              1538.7541
 Red. masses --      1.0964                 1.0585                 1.1086
 Frc consts  --      1.5081                 1.4743                 1.5466
 IR Inten    --      8.8849                 3.8832                11.5533

                     91                     92                     93
                      A                      A                      A
 Frequencies --   1544.7290              1552.1739              1597.2417
 Red. masses --      1.0968                 1.0818                 5.2785
 Frc consts  --      1.5420                 1.5356                 7.9341
 IR Inten    --      7.4214                11.5326                 1.7843

                     94                     95                     96
                      A                      A                      A
 Frequencies --   2942.5804              2955.4369              3009.2307
 Red. masses --      1.0816                 1.0745                 1.0748
 Frc consts  --      5.5179                 5.5297                 5.7343
 IR Inten    --     39.7423                76.5059                74.9281

                     97                     98                     99
                      A                      A                      A
 Frequencies --   3023.9727              3025.7396              3038.4642
 Red. masses --      1.0709                 1.0834                 1.0380
 Frc consts  --      5.7696                 5.8438                 5.6459
 IR Inten    --     26.6043                12.8024                19.2636

                    100                    101                    102
                      A                      A                      A
 Frequencies --   3044.9305              3045.9127              3053.5396
 Red. masses --      1.0407                 1.0662                 1.0674
 Frc consts  --      5.6851                 5.8279                 5.8637
 IR Inten    --     30.1703                39.5515                18.7938

                    103                    104                    105
                      A                      A                      A
 Frequencies --   3057.7289              3073.5876              3094.9139
 Red. masses --      1.0790                 1.0711                 1.0924
 Frc consts  --      5.9441                 5.9620                 6.1652
 IR Inten    --     61.8786                34.6155                74.7009

                    106                    107                    108
                      A                      A                      A
 Frequencies --   3101.0526              3101.3237              3109.8582
 Red. masses --      1.0967                 1.0998                 1.0981
 Frc consts  --      6.2135                 6.2323                 6.2573
 IR Inten    --     16.1630                 5.0790                 3.8979

                    109                    110                    111
                      A                      A                      A
 Frequencies --   3110.2744              3119.6594              3132.6050
 Red. masses --      1.0985                 1.1010                 1.0969
 Frc consts  --      6.2613                 6.3130                 6.3422
 IR Inten    --     84.1355                40.3422                12.3833

                    112                    113                    114
                      A                      A                      A
 Frequencies --   3136.3237              3147.4517              3212.2382
 Red. masses --      1.1023                 1.0941                 1.0910
 Frc consts  --      6.3883                 6.3861                 6.6325
 IR Inten    --     31.2682                31.8654                 6.0060

                    115                    116                    117
                      A                      A                      A
 Frequencies --   3262.6765              3272.5646              3479.0992
 Red. masses --      1.0931                 1.0966                 1.0734
 Frc consts  --      6.8558                 6.9195                 7.6552
 IR Inten    --      1.5246                 0.9389                 0.4078

 - Thermochemistry -
 -------------------
 Temperature   298.150 Kelvin.  Pressure   1.00000 Atm.
 Atom     1 has atomic number  6 and mass  12.00000

 Molecular mass:   252.16602 amu.
 Principal axes and moments of inertia in atomic units:
                           1         2         3
     Eigenvalues --  1860.759769800.25716**********
           X            0.99994  -0.01044   0.00171
           Y            0.01039   0.99958   0.02699
           Z           -0.00199  -0.02697   0.99963
 This molecule is an asymmetric top.
 Rotational symmetry number  1.
 Warning -- assumption of classical behavior for rotation
           may cause significant error
 Rotational temperatures (Kelvin)      0.04655     0.00884     0.00834
 Rotational constants (GHZ):           0.96989     0.18415     0.17382
 Zero-point vibrational energy     962129.3 (Joules/Mol)
                                  229.95441 (Kcal/Mol)
 Warning -- explicit consideration of  26 degrees of freedom as
           vibrations may cause significant error
 Vibrational temperatures:     27.21    35.22    56.84    66.46    92.81
          (Kelvin)            139.42   173.02   209.74   224.31   280.18
                              318.02   332.40   339.53   380.38   415.83
                              418.00   491.28   532.10   585.24   623.74
                              660.66   691.73   709.45   784.54   826.38
                              879.94   910.75   936.62   969.36   980.41
                             1057.82  1066.41  1124.14  1159.85  1194.11
                             1230.59  1246.40  1268.91  1278.17  1305.89
                             1324.85  1341.87  1347.81  1358.42  1376.69
                             1407.30  1415.50  1446.07  1457.99  1516.23
                             1591.73  1599.23  1610.69  1643.80  1657.63
                             1662.31  1671.58  1712.17  1722.01  1739.70
                             1774.22  1781.71  1819.44  1831.73  1840.56
                             1875.74  1905.85  1927.87  1937.28  1958.10
                             1970.32  1981.76  1997.09  2017.01  2030.19
                             2047.96  2058.64  2066.64  2076.29  2088.91
                             2110.87  2165.30  2167.25  2179.62  2182.86
                             2185.15  2188.55  2198.31  2212.21  2213.92
                             2222.52  2233.23  2298.07  4233.72  4252.21
                             4329.61  4350.82  4353.36  4371.67  4380.98
                             4382.39  4393.36  4399.39  4422.21  4452.89
                             4461.72  4462.11  4474.39  4474.99  4488.49
                             4507.12  4512.47  4528.48  4621.69  4694.26
                             4708.49  5005.65

 Zero-point correction=                           0.366456 (Hartree/Particle)
 Thermal correction to Energy=                    0.384393
 Thermal correction to Enthalpy=                  0.385337
 Thermal correction to Gibbs Free Energy=         0.318262
 Sum of electronic and zero-point Energies=          -1055.312937
 Sum of electronic and thermal Energies=             -1055.295000
 Sum of electronic and thermal Enthalpies=           -1055.294056
 Sum of electronic and thermal Free Energies=        -1055.361131

                     E (Thermal)             CV                S
                      KCal/Mol        Cal/Mol-Kelvin    Cal/Mol-Kelvin
 Total                  241.210             68.652            141.171
 Electronic               0.000              0.000              0.000
 Translational            0.889              2.981             42.475
 Rotational               0.889              2.981             33.604
 Vibrational            239.433             62.690             65.092
 Vibration     1          0.593              1.986              6.745
 Vibration     2          0.593              1.985              6.233
 Vibration     3          0.594              1.981              5.284
 Vibration     4          0.595              1.979              4.974
 Vibration     5          0.597              1.971              4.314
 Vibration     6          0.603              1.951              3.516
 Vibration     7          0.609              1.932              3.096
 Vibration     8          0.617              1.907              2.727
 Vibration     9          0.620              1.896              2.599
 Vibration    10          0.635              1.847              2.182
 Vibration    11          0.648              1.809              1.951
 Vibration    12          0.653              1.794              1.871
 Vibration    13          0.655              1.786              1.833
 Vibration    14          0.671              1.738              1.633
 Vibration    15          0.686              1.694              1.480
 Vibration    16          0.686              1.691              1.471
 Vibration    17          0.721              1.593              1.205
 Vibration    18          0.742              1.534              1.080
 Vibration    19          0.772              1.456              0.938
 Vibration    20          0.794              1.397              0.847
 Vibration    21          0.817              1.341              0.768
 Vibration    22          0.837              1.293              0.708
 Vibration    23          0.849              1.265              0.676
 Vibration    24          0.900              1.150              0.554
 Vibration    25          0.931              1.087              0.496
 Vibration    26          0.971              1.007              0.430

 Optimization completed.
    -- Stationary point found.
 Normal termination of Gaussian 16 at Sun Dec 13 16:59:26 2020.

 ----------------------------------------------------------------------
 # B3LYP/6-311++G(d,p) empiricaldispersion=gd3bj scf=xqc pop=npa geom=c
 heck
 ----------------------------------------------------------------------

 --------------------------------------
 CID_64055743_JID_7197_Energie_neutraal
 --------------------------------------
 Structure from the checkpoint file:  "JID_7197.chk"
 Charge =  0 Multiplicity = 1

 SCF Done:  E(RB3LYP) =  -1055.88582889     A.U. after   16 cycles
 Normal termination of Gaussian 16 at Sun Dec 13 17:09:57 2020.

 ----------------------------------------------------------------------
 # B3LYP/6-311++G(d,p) empiricaldispersion=gd3bj scf=xqc pop=npa geom=c
 heck
 ----------------------------------------------------------------------

 ------------------------------------
 CID_64055743_JID_7197_Energie_kation
 ------------------------------------
 Structure from the checkpoint file:  "JID_7197.chk"
 Charge =  1 Multiplicity = 2

 SCF Done:  E(UB3LYP) =  -1055.62327689     A.U. after   28 cycles
 Normal termination of Gaussian 16 at Sun Dec 13 17:35:16 2020.
 Gaussian 16:  ES64L-G16RevA.03 25-Dec-2016

 ----------------------------------------------------------------------
 # B3LYP/6-311++G(d,p) empiricaldispersion=gd3bj scf=xqc pop=npa geom=c
 heck
 ----------------------------------------------------------------------

 -----------------------------------
 CID_64055743_JID_7197_Energie_anion
 -----------------------------------
 Structure from the checkpoint file:  "JID_7197.chk"
 Charge = -1 Multiplicity = 2

                         Standard orientation:
 ---------------------------------------------------------------------
 Center     Atomic      Atomic             Coordinates (Angstroms)
 Number     Number       Type             X           Y           Z
 ---------------------------------------------------------------------
      1          6           0        5.003984   -1.763247   -0.478237
      2          6           0        4.330996   -0.725893    0.422927
      3          6           0        5.332812    0.356759    0.859942
      4          7           0        3.143358   -0.209535   -0.264086
      5          6           0        2.234364    0.584086    0.553437
      6          6           0        1.163605    1.267269   -0.288463
      7          6           0        0.139906    2.095204    0.527852
      8          6           0       -1.067355    2.231870   -0.430243
      9          6           0       -0.748498    1.243997   -1.593261
     10          7           0        0.368712    0.399373   -1.163449
     11          6           0        0.083752   -0.965507   -0.745998
     12          6           0       -0.754089   -1.242998    0.532367
     13          6           0       -2.217196   -0.878603    0.471104
     14          6           0       -3.083331   -1.263805   -0.520953
     15         16           0       -4.692762   -0.668042   -0.264736
     16          6           0       -4.213251    0.108320    1.210012
     17          6           0       -2.885492   -0.090770    1.467173
     18          1           0        5.367928   -1.292074   -1.400894
     19          1           0        4.292405   -2.545684   -0.757392
     20          1           0        5.863938   -2.223878    0.020459
     21          1           0        3.961939   -1.238278    1.323014
     22          1           0        5.738747    0.876570   -0.017857
     23          1           0        4.868275    1.104823    1.510754
     24          1           0        6.175038   -0.082418    1.407154
     25          1           0        3.423524    0.324503   -1.086071
     26          1           0        1.774819   -0.084200    1.292863
     27          1           0        2.735278    1.380964    1.133129
     28          1           0        1.687150    1.976161   -0.955547
     29          1           0       -0.143223    1.549071    1.435584
     30          1           0        0.547804    3.061409    0.843506
     31          1           0       -2.002328    1.970565    0.069684
     32          1           0       -1.168988    3.255322   -0.806351
     33          1           0       -1.605798    0.633494   -1.880216
     34          1           0       -0.434450    1.817262   -2.477898
     35          1           0       -0.412615   -1.457208   -1.592097
     36          1           0        1.052771   -1.458792   -0.624099
     37          1           0       -0.661393   -2.319749    0.735870
     38          1           0       -0.300130   -0.739415    1.391603
     39          1           0       -2.867884   -1.863724   -1.394837
     40          1           0       -4.934601    0.664132    1.793022
     41          1           0       -2.379743    0.310874    2.339187
 ---------------------------------------------------------------------

 SCF Done:  E(UB3LYP) =  -1055.87177037     A.U. after   33 cycles
 SCF Done:  E(UB3LYP) =  -1055.87177037     a.u. after    1 cycles

 The electronic state is 2-A.
 Alpha  occ. eigenvalues --  -88.77760 -14.19369 -14.19321 -10.10013 -10.09916
 Alpha  occ. eigenvalues --  -10.09679 -10.09261 -10.09005 -10.08730 -10.08612
 Alpha  occ. eigenvalues --  -10.08179 -10.07908 -10.07322 -10.06528 -10.06245
 Alpha  occ. eigenvalues --  -10.05870 -10.05632  -7.86383  -5.82667  -5.82304
 Alpha  occ. eigenvalues --   -5.82005  -0.83275  -0.80370  -0.78345  -0.69289
 Alpha  occ. eigenvalues --   -0.67672  -0.66278  -0.63157  -0.62816  -0.60312
 Alpha  occ. eigenvalues --   -0.58750  -0.55231  -0.53405  -0.49038  -0.47992
 Alpha  occ. eigenvalues --   -0.47344  -0.45451  -0.44399  -0.40489  -0.39153
 Alpha  occ. eigenvalues --   -0.37851  -0.37268  -0.36466  -0.34891  -0.33523
 Alpha  occ. eigenvalues --   -0.32830  -0.32644  -0.31511  -0.31214  -0.30942
 Alpha  occ. eigenvalues --   -0.29287  -0.28945  -0.28269  -0.27921  -0.27841
 Alpha  occ. eigenvalues --   -0.27025  -0.26769  -0.25177  -0.25006  -0.24363
 Alpha  occ. eigenvalues --   -0.23777  -0.23669  -0.23034  -0.22507  -0.21695
 Alpha  occ. eigenvalues --   -0.15638  -0.14321  -0.12420  -0.10343   0.04446
 Alpha virt. eigenvalues --    0.06044   0.06646   0.06919   0.07271   0.07613
 Alpha virt. eigenvalues --    0.08330   0.08628   0.09169   0.09699   0.10053
 Alpha virt. eigenvalues --    0.10244   0.10644   0.11242   0.11765   0.12153

  Beta  occ. eigenvalues --  -88.77739 -14.19368 -14.19310 -10.10003 -10.09818
  Beta  occ. eigenvalues --  -10.09669 -10.09248 -10.08880 -10.08715 -10.08608
  Beta  occ. eigenvalues --  -10.08161 -10.07907 -10.07316 -10.06514 -10.06240
  Beta  occ. eigenvalues --  -10.05845 -10.05591  -7.86364  -5.82658  -5.82295
  Beta  occ. eigenvalues --   -5.81935  -0.83261  -0.80350  -0.78225  -0.69247
  Beta  occ. eigenvalues --   -0.67640  -0.66218  -0.63011  -0.62786  -0.60219
  Beta  occ. eigenvalues --   -0.58683  -0.55190  -0.53349  -0.48986  -0.47908
  Beta  occ. eigenvalues --   -0.47221  -0.45398  -0.44311  -0.40435  -0.39119
  Beta  occ. eigenvalues --   -0.37815  -0.37219  -0.36433  -0.34852  -0.33485
  Beta  occ. eigenvalues --   -0.32792  -0.32593  -0.31469  -0.31150  -0.30847
  Beta  occ. eigenvalues --   -0.29231  -0.28906  -0.28231  -0.27869  -0.27763
  Beta  occ. eigenvalues --   -0.26938  -0.26600  -0.25120  -0.24954  -0.24340
  Beta  occ. eigenvalues --   -0.23733  -0.23627  -0.23005  -0.22484  -0.21668
  Beta  occ. eigenvalues --   -0.15345  -0.13769  -0.12377  -0.10281
  Beta virt. eigenvalues --    0.06459   0.06810   0.07227   0.07356   0.07616
  Beta virt. eigenvalues --    0.07856   0.08653   0.08951   0.09358   0.09925
  Beta virt. eigenvalues --    0.10139   0.10366   0.10952   0.11392   0.11954

 Mulliken charges and spin densities:
               1          2
     1  C    0.253621  -0.774071
     2  C   -1.067424   1.135796
     3  C    1.374915  -1.870716
     4  N    0.071884   0.028017
     5  C   -0.546147  -0.372461
     6  C   -0.174802   0.188782
     7  C    0.332866  -0.730387
     8  C   -0.780962   0.383725
     9  C    0.436743  -0.607390
    10  N    0.261618  -0.001076
    11  C   -0.263125  -0.265665
    12  C    0.135189  -0.773627
    13  C    0.088374   0.022087
    14  C   -0.104122   0.589838
    15  S   -0.096599  -0.146099
    16  C   -0.325829  -0.070745
    17  C   -0.413877   0.254796
    18  H   -0.086570   0.215817
    19  H   -0.136249   0.291366
    20  H   -0.164485   0.297064
    21  H    0.079228   0.036560
    22  H   -0.225221   0.356695
    23  H   -0.488042   0.624019
    24  H   -0.262165   0.409190
    25  H    0.314408  -0.070948
    26  H   -0.177756   0.293899
    27  H    0.357768  -0.198630
    28  H   -0.298285   0.443045
    29  H    0.160146  -0.031515
    30  H   -0.268722   0.408576
    31  H    0.125977   0.032987
    32  H    0.051917   0.114063
    33  H    0.198084  -0.036216
    34  H    0.010150   0.152142
    35  H    0.069324   0.105096
    36  H    0.178828  -0.027032
    37  H   -0.016951   0.194249
    38  H    0.210404  -0.039660
    39  H   -0.023330   0.275808
    40  H    0.180278   0.054286
    41  H    0.028942   0.108336
 Sum of Mulliken charges =  -1.00000   1.00000

 Dipole moment (field-independent basis, Debye):
    X=             -8.0453    Y=              0.0168    Z=             -0.0238  Tot=              8.0453
 Quadrupole moment (field-independent basis, Debye-Ang):
   XX=           -225.4562   YY=           -159.0289   ZZ=           -142.2037
   XY=             -5.2048   XZ=             -6.8082   YZ=             -0.1166

 Summary of Natural Population Analysis:

                                       Natural Population
                Natural  -----------------------------------------------
    Atom  No    Charge         Core      Valence    Rydberg      Total
 -----------------------------------------------------------------------
      C    1   -0.28343      0.99965     2.27848    0.00531     3.28343
      C    2   -0.01124      0.99963     2.00004    0.01158     3.01124
      C    3   -0.29469      0.99965     2.28947    0.00557     3.29469
      N    4   -0.34113      0.99973     2.83031    0.01110     3.84113
      C    5   -0.08832      0.99959     2.07890    0.00984     3.08832
      C    6   -0.00514      0.99959     1.99148    0.01407     3.00514
      C    7   -0.19568      0.99962     2.18780    0.00827     3.19568
      C    8   -0.20607      0.99964     2.19849    0.00794     3.20607
      C    9   -0.08624      0.99963     2.07649    0.01012     3.08624
      N   10   -0.27865      0.99972     2.76603    0.01290     3.77865
      C   11   -0.08451      0.99960     2.07213    0.01278     3.08451
      C   12   -0.20829      0.99958     2.20044    0.00827     3.20829
      C   13   -0.04264      0.99948     2.03184    0.01132     3.04264
      C   14   -0.18038      0.99945     2.16864    0.01229     3.18038
      S   15    0.19714      4.99945     2.78126    0.02215     7.80286
      C   16   -0.18410      0.99954     2.17333    0.01124     3.18410
      C   17   -0.12756      0.99949     2.11926    0.00881     3.12756
      H   18    0.09496      0.00000     0.40397    0.00106     0.40504
      H   19    0.10312      0.00000     0.39564    0.00123     0.39688
      H   20    0.09831      0.00000     0.40066    0.00102     0.40169
      H   21    0.08670      0.00000     0.41142    0.00188     0.41330
      H   22    0.09610      0.00000     0.40247    0.00143     0.40390
      H   23    0.10042      0.00000     0.39820    0.00138     0.39958
      H   24    0.10038      0.00000     0.39832    0.00131     0.39962
      H   25    0.17131      0.00000     0.32595    0.00274     0.32869
      H   26    0.08927      0.00000     0.40892    0.00182     0.41073
      H   27    0.08751      0.00000     0.41080    0.00169     0.41249
      H   28    0.08950      0.00000     0.40899    0.00151     0.41050
      H   29    0.09301      0.00000     0.40563    0.00136     0.40699
      H   30    0.09995      0.00000     0.39846    0.00159     0.40005
      H   31    0.10476      0.00000     0.39375    0.00149     0.39524
      H   32    0.09434      0.00000     0.40447    0.00120     0.40566
      H   33    0.10095      0.00000     0.39763    0.00142     0.39905
      H   34    0.08683      0.00000     0.41211    0.00106     0.41317
      H   35    0.09115      0.00000     0.40776    0.00109     0.40885
      H   36    0.11031      0.00000     0.38810    0.00158     0.38969
      H   37    0.10567      0.00000     0.39293    0.00140     0.39433
      H   38    0.09745      0.00000     0.40071    0.00184     0.40255
      H   39    0.10805      0.00000     0.39080    0.00115     0.39195
      H   40    0.10563      0.00000     0.39358    0.00079     0.39437
      H   41    0.10526      0.00000     0.39375    0.00098     0.39474
 =======================================================================
   * Total *    0.00000     20.99302    47.78940    0.21758    69.00000

 Normal termination of Gaussian 16 at Sun Dec 13 18:04:15 2020.
