 Gaussian 16, Revision A.03,

 -----------------------------------------------------------
 # opt freq B3LYP/6-31G(d) empiricaldispersion=gd3bj scf=xqc
 -----------------------------------------------------------

 -----------------------------
 CID_22390357_JID_804_neutraal
 -----------------------------
 Symbolic Z-matrix:
 Charge =  0 Multiplicity = 1

 SCF Done:  E(RB3LYP) =  -813.946750544     A.U. after   18 cycles
 SCF Done:  E(RB3LYP) =  -813.949082723     A.U. after   12 cycles
 SCF Done:  E(RB3LYP) =  -813.949254578     A.U. after   10 cycles
 SCF Done:  E(RB3LYP) =  -813.949266224     A.U. after    9 cycles
 SCF Done:  E(RB3LYP) =  -813.949267744     A.U. after    8 cycles
 SCF Done:  E(RB3LYP) =  -813.949267494     A.U. after    9 cycles
 SCF Done:  E(RB3LYP) =  -813.949267868     A.U. after    8 cycles
 SCF Done:  E(RB3LYP) =  -813.949268077     A.U. after    8 cycles
 Optimization completed.
    -- Stationary point found.
 Normal termination of Gaussian 16 at Tue Dec  8 12:30:45 2020.

 --------------------------------------------------------------------
 #N Geom=AllCheck Guess=TCheck SCRF=Check GenChk RB3LYP/6-31G(d) Freq
 --------------------------------------------------------------------

 Structure from the checkpoint file:  "JID_804.chk"
 -----------------------------
 CID_22390357_JID_804_neutraal
 -----------------------------
 Charge =  0 Multiplicity = 1

 SCF Done:  E(RB3LYP) =  -813.949268077     A.U. after    1 cycles

  Exact polarizability: 131.944  -1.409 100.830  -0.000  -0.000  37.531
 Approx polarizability: 231.265 -11.393 180.413  -0.001  -0.001  60.249

                      1                      2                      3
                      A                      A                      A
 Frequencies --    100.6179               149.4039               193.4015
 Red. masses --      7.1868                 8.6473                 3.5121
 Frc consts  --      0.0429                 0.1137                 0.0774
 IR Inten    --      0.0747                 1.5901                 6.1483

                      4                      5                      6
                      A                      A                      A
 Frequencies --    220.9202               323.1275               356.2526
 Red. masses --      7.0394                 3.3381                10.6500
 Frc consts  --      0.2024                 0.2054                 0.7964
 IR Inten    --      0.7384                 4.8479                 5.0453

                      7                      8                      9
                      A                      A                      A
 Frequencies --    480.9637               492.4842               565.6831
 Red. masses --      8.0734                 3.7600                 7.0044
 Frc consts  --      1.1003                 0.5373                 1.3206
 IR Inten    --      2.1043                 2.7236                 1.2181

                     10                     11                     12
                      A                      A                      A
 Frequencies --    638.2021               657.8037               673.1500
 Red. masses --      9.4281                 2.4362                 5.8390
 Frc consts  --      2.2625                 0.6211                 1.5589
 IR Inten    --      4.9060                29.2956                 2.9576

                     13                     14                     15
                      A                      A                      A
 Frequencies --    719.9280               760.9447               770.3195
 Red. masses --      1.7940                 7.6103                 1.3738
 Frc consts  --      0.5478                 2.5963                 0.4803
 IR Inten    --     27.7249                16.0758                16.1461

                     16                     17                     18
                      A                      A                      A
 Frequencies --    803.4429               854.9756               872.6308
 Red. masses --      5.9378                 1.2618                 4.7560
 Frc consts  --      2.2583                 0.5435                 2.1338
 IR Inten    --     69.9789                 0.1324                21.7524

                     19                     20                     21
                      A                      A                      A
 Frequencies --   1011.9396              1055.5037              1090.0925
 Red. masses --      1.7467                 4.5187                 1.9272
 Frc consts  --      1.0538                 2.9661                 1.3493
 IR Inten    --      0.6240                35.0528                 1.7039

                     22                     23                     24
                      A                      A                      A
 Frequencies --   1147.6524              1251.5852              1294.6470
 Red. masses --      1.7891                 1.4681                 2.6914
 Frc consts  --      1.3884                 1.3550                 2.6579
 IR Inten    --     11.4475                11.6084                19.1591

                     25                     26                     27
                      A                      A                      A
 Frequencies --   1342.7115              1366.1262              1407.7926
 Red. masses --      4.5271                 4.0919                 2.2893
 Frc consts  --      4.8088                 4.4995                 2.6732
 IR Inten    --      6.6452                43.8784                 9.3417

                     28                     29                     30
                      A                      A                      A
 Frequencies --   1439.8733              1516.8121              1540.5530
 Red. masses --      2.2752                 4.5046                 5.8732
 Frc consts  --      2.7791                 6.1062                 8.2125
 IR Inten    --     21.7515                 5.5868               113.5377

                     31                     32                     33
                      A                      A                      A
 Frequencies --   1626.1695              1801.5123              2866.6545
 Red. masses --      6.0214                 9.7204                 1.0815
 Frc consts  --      9.3816                18.5870                 5.2362
 IR Inten    --      9.3822               399.7169               105.1140

                     34                     35                     36
                      A                      A                      A
 Frequencies --   3272.1726              3277.4332              3292.8040
 Red. masses --      1.0892                 1.0969                 1.1035
 Frc consts  --      6.8712                 6.9422                 7.0494
 IR Inten    --      4.2609                 0.2901                 0.7511

 - Thermochemistry -
 -------------------
 Temperature   298.150 Kelvin.  Pressure   1.00000 Atm.
 Atom     1 has atomic number  6 and mass  12.00000

 Molecular mass:   152.00443 amu.
 Principal axes and moments of inertia in atomic units:
                           1         2         3
     Eigenvalues --   751.184191899.224612650.40880
           X            0.99979   0.02028   0.00000
           Y           -0.02028   0.99979  -0.00000
           Z           -0.00000   0.00000   1.00000
 This molecule is an asymmetric top.
 Rotational symmetry number  1.
 Warning -- assumption of classical behavior for rotation
           may cause significant error
 Rotational temperatures (Kelvin)      0.11530     0.04560     0.03268
 Rotational constants (GHZ):           2.40253     0.95025     0.68093
 Zero-point vibrational energy     246647.8 (Joules/Mol)
                                   58.95023 (Kcal/Mol)
 Warning -- explicit consideration of   9 degrees of freedom as
           vibrations may cause significant error
 Vibrational temperatures:    144.77   214.96   278.26   317.85   464.91
          (Kelvin)            512.57   692.00   708.57   813.89   918.23
                              946.43   968.51  1035.82  1094.83  1108.32
                             1155.98  1230.12  1255.52  1455.96  1518.63
                             1568.40  1651.22  1800.75  1862.71  1931.86
                             1965.55  2025.50  2071.66  2182.35  2216.51
                             2339.70  2591.97  4124.48  4707.93  4715.50
                             4737.61

 Zero-point correction=                           0.093943 (Hartree/Particle)
 Thermal correction to Energy=                    0.101708
 Thermal correction to Enthalpy=                  0.102652
 Thermal correction to Gibbs Free Energy=         0.060792
 Sum of electronic and zero-point Energies=           -813.855325
 Sum of electronic and thermal Energies=              -813.847560
 Sum of electronic and thermal Enthalpies=            -813.846616
 Sum of electronic and thermal Free Energies=         -813.888476

                     E (Thermal)             CV                S
                      KCal/Mol        Cal/Mol-Kelvin    Cal/Mol-Kelvin
 Total                   63.823             29.222             88.101
 Electronic               0.000              0.000              0.000
 Translational            0.889              2.981             40.966
 Rotational               0.889              2.981             29.715
 Vibrational             62.045             23.260             17.420
 Vibration     1          0.604              1.949              3.442
 Vibration     2          0.618              1.903              2.680
 Vibration     3          0.635              1.849              2.195
 Vibration     4          0.648              1.809              1.952
 Vibration     5          0.708              1.629              1.294
 Vibration     6          0.732              1.562              1.138
 Vibration     7          0.837              1.292              0.707
 Vibration     8          0.848              1.267              0.677
 Vibration     9          0.922              1.105              0.513

 Optimization completed.
    -- Stationary point found.
 Normal termination of Gaussian 16 at Tue Dec  8 12:40:51 2020.

 ----------------------------------------------------------------------
 # B3LYP/6-311++G(d,p) empiricaldispersion=gd3bj scf=xqc pop=npa geom=c
 heck
 ----------------------------------------------------------------------

 -------------------------------------
 CID_22390357_JID_804_Energie_neutraal
 -------------------------------------
 Structure from the checkpoint file:  "JID_804.chk"
 Charge =  0 Multiplicity = 1

 SCF Done:  E(RB3LYP) =  -814.088896638     A.U. after   18 cycles
 Normal termination of Gaussian 16 at Tue Dec  8 12:43:03 2020.

 ----------------------------------------------------------------------
 # B3LYP/6-311++G(d,p) empiricaldispersion=gd3bj scf=xqc pop=npa geom=c
 heck
 ----------------------------------------------------------------------

 -----------------------------------
 CID_22390357_JID_804_Energie_kation
 -----------------------------------
 Structure from the checkpoint file:  "JID_804.chk"
 Charge =  1 Multiplicity = 2

 SCF Done:  E(UB3LYP) =  -813.782234733     A.U. after   23 cycles
 Normal termination of Gaussian 16 at Tue Dec  8 12:50:13 2020.
 Gaussian 16:  ES64L-G16RevA.03 25-Dec-2016

 ----------------------------------------------------------------------
 # B3LYP/6-311++G(d,p) empiricaldispersion=gd3bj scf=xqc pop=npa geom=c
 heck
 ----------------------------------------------------------------------

 ----------------------------------
 CID_22390357_JID_804_Energie_anion
 ----------------------------------
 Structure from the checkpoint file:  "JID_804.chk"
 Charge = -1 Multiplicity = 2

                         Standard orientation:
 ---------------------------------------------------------------------
 Center     Atomic      Atomic             Coordinates (Angstroms)
 Number     Number       Type             X           Y           Z
 ---------------------------------------------------------------------
      1          6           0        2.179652    0.933777   -0.000002
      2          6           0        2.611270   -0.343054    0.000013
      3         16           0        1.286986   -1.514425   -0.000002
      4          6           0        0.134116   -0.202339    0.000001
      5          6           0       -1.227647    0.088494    0.000002
      6          7           0       -1.388638    1.465801    0.000043
      7          6           0       -0.193178    1.995091   -0.000028
      8          7           0        0.788957    1.015408   -0.000007
      9          6           0       -2.315429   -0.879804   -0.000001
     10          8           0       -3.503082   -0.618982   -0.000007
     11          1           0        2.774875    1.835833   -0.000012
     12          1           0        3.635996   -0.685555    0.000015
     13          1           0        0.047586    3.048748   -0.000044
     14          1           0       -1.960504   -1.937831   -0.000036
 ---------------------------------------------------------------------

 SCF Done:  E(UB3LYP) =  -814.084856490     A.U. after   33 cycles
 SCF Done:  E(UB3LYP) =  -814.084856490     a.u. after    1 cycles

 The electronic state is 2-A.
 Alpha  occ. eigenvalues --  -88.73704 -18.91249 -14.24605 -14.16229 -10.09163
 Alpha  occ. eigenvalues --  -10.08278 -10.06523 -10.06163 -10.05541 -10.03442
 Alpha  occ. eigenvalues --   -7.82258  -5.78616  -5.78250  -5.77757  -0.89542
 Alpha  occ. eigenvalues --   -0.84984  -0.77494  -0.67945  -0.62879  -0.57659
 Alpha  occ. eigenvalues --   -0.49824  -0.48619  -0.43016  -0.41471  -0.36039
 Alpha  occ. eigenvalues --   -0.32890  -0.32592  -0.30906  -0.28025  -0.27404
 Alpha  occ. eigenvalues --   -0.24437  -0.22941  -0.22703  -0.20497  -0.16258
 Alpha  occ. eigenvalues --   -0.13808  -0.12304  -0.07494  -0.06881   0.06659
 Alpha virt. eigenvalues --    0.08207   0.09460   0.10911   0.11512   0.12108
 Alpha virt. eigenvalues --    0.13290   0.14108   0.14981   0.15365   0.15789
 Alpha virt. eigenvalues --    0.17587   0.18349   0.18565   0.19349   0.20314

  Beta  occ. eigenvalues --  -88.73659 -18.90749 -14.24656 -14.16236 -10.09215
  Beta  occ. eigenvalues --  -10.08201 -10.06001 -10.05816 -10.05278 -10.03488
  Beta  occ. eigenvalues --   -7.82218  -5.78608  -5.78241  -5.77586  -0.89410
  Beta  occ. eigenvalues --   -0.84098  -0.77396  -0.67643  -0.62328  -0.57444
  Beta  occ. eigenvalues --   -0.49406  -0.48122  -0.42702  -0.41087  -0.35804
  Beta  occ. eigenvalues --   -0.32688  -0.32006  -0.30671  -0.27832  -0.27219
  Beta  occ. eigenvalues --   -0.23895  -0.22272  -0.21784  -0.18981  -0.15080
  Beta  occ. eigenvalues --   -0.13771  -0.10776  -0.07068  -0.05828
  Beta virt. eigenvalues --    0.08135   0.09425   0.11435   0.12087   0.12352
  Beta virt. eigenvalues --    0.12609   0.14200   0.14278   0.14914   0.15469
  Beta virt. eigenvalues --    0.15926   0.17539   0.18536   0.18685   0.19337

 Mulliken charges and spin densities:
               1          2
     1  C   -0.157647   0.097237
     2  C   -0.361514   0.196584
     3  S   -0.532989   0.170150
     4  C   -0.792820   0.185266
     5  C    1.154707   0.055404
     6  N   -0.129223  -0.009492
     7  C    0.227000  -0.022471
     8  N    0.193155  -0.018812
     9  C   -0.677595   0.237713
    10  O   -0.390468   0.152712
    11  H    0.109435  -0.010210
    12  H    0.196347  -0.016695
    13  H    0.135026   0.003219
    14  H    0.026588  -0.020605
 Sum of Mulliken charges =  -1.00000   1.00000

 Dipole moment (field-independent basis, Debye):
    X=              8.2981    Y=              1.6691    Z=             -0.0001  Tot=              8.4643
 Quadrupole moment (field-independent basis, Debye-Ang):
   XX=           -105.9843   YY=            -73.3062   ZZ=            -73.6117
   XY=              2.1150   XZ=              0.0000   YZ=             -0.0004

 Summary of Natural Population Analysis:

                                       Natural Population
                Natural  -----------------------------------------------
    Atom  No    Charge         Core      Valence    Rydberg      Total
 -----------------------------------------------------------------------
      C    1   -0.01849      0.99952     2.00783    0.01114     3.01849
      C    2   -0.13956      0.99953     2.12913    0.01090     3.13956
      S    3    0.18779      4.99950     2.79003    0.02268     7.81221
      C    4    0.08612      0.99943     1.89915    0.01531     2.91388
      C    5   -0.03190      0.99942     2.01374    0.01874     3.03190
      N    6   -0.22850      0.99970     2.71854    0.01025     3.72850
      C    7    0.07062      0.99966     1.91328    0.01644     2.92938
      N    8   -0.21404      0.99960     2.70349    0.01095     3.71404
      C    9    0.22421      0.99968     1.75570    0.02041     2.77579
      O   10   -0.24873      0.99988     3.24068    0.00817     4.24873
      H   11    0.09763      0.00000     0.40142    0.00095     0.40237
      H   12    0.09922      0.00000     0.39990    0.00088     0.40078
      H   13    0.08508      0.00000     0.41384    0.00108     0.41492
      H   14    0.03055      0.00000     0.46709    0.00236     0.46945
 =======================================================================
   * Total *    0.00000     13.99592    24.85381    0.15027    39.00000

 Normal termination of Gaussian 16 at Tue Dec  8 13:05:00 2020.
