 Gaussian 16, Revision A.03,

 -----------------------------------------------------------
 # opt freq B3LYP/6-31G(d) empiricaldispersion=gd3bj scf=xqc
 -----------------------------------------------------------

 -------------------------------
 CID_130170570_JID_4242_neutraal
 -------------------------------
 Symbolic Z-matrix:
 Charge =  0 Multiplicity = 1

 SCF Done:  E(RB3LYP) =  -1018.04172018     A.U. after   16 cycles
 SCF Done:  E(RB3LYP) =  -1018.04810520     A.U. after   13 cycles
 SCF Done:  E(RB3LYP) =  -1018.04889290     A.U. after   13 cycles
 SCF Done:  E(RB3LYP) =  -1018.05031737     A.U. after   13 cycles
 SCF Done:  E(RB3LYP) =  -1018.05114619     A.U. after   13 cycles
 SCF Done:  E(RB3LYP) =  -1018.05036057     A.U. after   17 cycles
 SCF Done:  E(RB3LYP) =  -1018.05238217     A.U. after   14 cycles
 SCF Done:  E(RB3LYP) =  -1018.05312757     A.U. after   12 cycles
 SCF Done:  E(RB3LYP) =  -1018.05333179     A.U. after   12 cycles
 SCF Done:  E(RB3LYP) =  -1018.05340397     A.U. after   12 cycles
 SCF Done:  E(RB3LYP) =  -1018.05348141     A.U. after   11 cycles
 SCF Done:  E(RB3LYP) =  -1018.05348385     A.U. after    9 cycles
 SCF Done:  E(RB3LYP) =  -1018.05348485     A.U. after    9 cycles
 SCF Done:  E(RB3LYP) =  -1018.05348508     A.U. after    8 cycles
 SCF Done:  E(RB3LYP) =  -1018.05348520     A.U. after    8 cycles
 Optimization completed.
    -- Stationary point found.
 Normal termination of Gaussian 16 at Thu Dec 10 09:22:16 2020.

 --------------------------------------------------------------------
 #N Geom=AllCheck Guess=TCheck SCRF=Check GenChk RB3LYP/6-31G(d) Freq
 --------------------------------------------------------------------

 Structure from the checkpoint file:  "JID_4242.chk"
 -------------------------------
 CID_130170570_JID_4242_neutraal
 -------------------------------
 Charge =  0 Multiplicity = 1

 SCF Done:  E(RB3LYP) =  -1018.05348520     A.U. after    1 cycles

  Exact polarizability: 155.063 -11.939 126.859  13.173   7.501  78.504
 Approx polarizability: 241.200 -19.857 220.696  32.916  28.730 149.686

                      1                      2                      3
                      A                      A                      A
 Frequencies --     55.6187                59.8338                85.2056
 Red. masses --      6.3385                 8.9222                 6.1534
 Frc consts  --      0.0116                 0.0188                 0.0263
 IR Inten    --      1.1574                 2.4944                 0.6057

                      4                      5                      6
                      A                      A                      A
 Frequencies --    107.1836               138.5330               194.6298
 Red. masses --      6.4425                 5.1939                 3.9898
 Frc consts  --      0.0436                 0.0587                 0.0890
 IR Inten    --      1.2087                 2.5129                 1.9273

                      7                      8                      9
                      A                      A                      A
 Frequencies --    217.6837               259.6269               292.3186
 Red. masses --      2.8787                 5.2973                 1.7560
 Frc consts  --      0.0804                 0.2104                 0.0884
 IR Inten    --     48.8035                 6.7891                20.5487

                     10                     11                     12
                      A                      A                      A
 Frequencies --    325.2796               336.3254               368.0785
 Red. masses --      1.7494                 5.9916                 2.0603
 Frc consts  --      0.1091                 0.3993                 0.1645
 IR Inten    --     77.4461                 2.8035                53.8858

                     13                     14                     15
                      A                      A                      A
 Frequencies --    391.4693               465.8401               515.5470
 Red. masses --      4.2522                 5.4851                 1.7388
 Frc consts  --      0.3839                 0.7013                 0.2723
 IR Inten    --     22.0187                 6.9169               126.5553

                     16                     17                     18
                      A                      A                      A
 Frequencies --    559.8984               582.6017               614.3509
 Red. masses --      3.5985                 6.0137                 4.3557
 Frc consts  --      0.6646                 1.2026                 0.9686
 IR Inten    --     53.1446                19.2587                 2.2769

                     19                     20                     21
                      A                      A                      A
 Frequencies --    621.8628               632.5419               666.8024
 Red. masses --      8.2304                 6.4517                 7.6810
 Frc consts  --      1.8753                 1.5209                 2.0122
 IR Inten    --      4.8536                11.1231                10.3625

                     22                     23                     24
                      A                      A                      A
 Frequencies --    677.6690               701.4550               724.7379
 Red. masses --      8.0261                 2.0456                 1.7582
 Frc consts  --      2.1717                 0.5930                 0.5441
 IR Inten    --      9.8066                 7.1973                59.7451

                     25                     26                     27
                      A                      A                      A
 Frequencies --    745.6880               803.7508               809.9553
 Red. masses --      9.7407                 1.2196                 1.4096
 Frc consts  --      3.1912                 0.4642                 0.5448
 IR Inten    --     26.5280                19.4458                 5.1089

                     28                     29                     30
                      A                      A                      A
 Frequencies --    870.6389               900.1290               910.5557
 Red. masses --      1.2980                 5.3567                 5.2430
 Frc consts  --      0.5797                 2.5571                 2.5612
 IR Inten    --      0.6456                18.4165                12.5157

                     31                     32                     33
                      A                      A                      A
 Frequencies --    946.4599               982.4858              1052.4358
 Red. masses --      6.0600                 4.4824                 1.5679
 Frc consts  --      3.1984                 2.5493                 1.0232
 IR Inten    --     24.0672                84.9511                11.9317

                     34                     35                     36
                      A                      A                      A
 Frequencies --   1073.0308              1132.8026              1149.0724
 Red. masses --      3.4795                 1.4350                 2.5123
 Frc consts  --      2.3604                 1.0849                 1.9545
 IR Inten    --     32.1602                41.8359                30.3985

                     37                     38                     39
                      A                      A                      A
 Frequencies --   1190.6847              1246.0470              1269.7040
 Red. masses --      2.3626                 1.5233                 1.5172
 Frc consts  --      1.9735                 1.3935                 1.4411
 IR Inten    --     12.8428                 5.1697                 4.1280

                     40                     41                     42
                      A                      A                      A
 Frequencies --   1326.9632              1352.1797              1386.9779
 Red. masses --      5.4283                 3.0014                 2.5284
 Frc consts  --      5.6316                 3.2333                 2.8657
 IR Inten    --     18.9745               153.7391                46.1150

                     43                     44                     45
                      A                      A                      A
 Frequencies --   1427.8780              1468.7772              1474.3381
 Red. masses --      2.2134                 3.6190                 7.2601
 Frc consts  --      2.6588                 4.5999                 9.2980
 IR Inten    --      7.3978                10.4023                26.0195

                     46                     47                     48
                      A                      A                      A
 Frequencies --   1510.3304              1570.4341              1604.2574
 Red. masses --      5.5629                11.3584                 4.9242
 Frc consts  --      7.4765                16.5047                 7.4668
 IR Inten    --     87.0700               273.7510                 4.5836

                     49                     50                     51
                      A                      A                      A
 Frequencies --   1659.6012              1723.3258              3255.0014
 Red. masses --      1.1923                 7.4135                 1.0924
 Frc consts  --      1.9349                12.9721                 6.8193
 IR Inten    --     96.7500                77.6524                 4.1607

                     52                     53                     54
                      A                      A                      A
 Frequencies --   3261.2965              3270.4661              3291.1442
 Red. masses --      1.0947                 1.0939                 1.1038
 Frc consts  --      6.8603                 6.8939                 7.0440
 IR Inten    --      0.5315                 2.8768                 0.5200

                     55                     56                     57
                      A                      A                      A
 Frequencies --   3573.5426              3692.7665              3775.4063
 Red. masses --      1.0472                 1.1000                 1.0677
 Frc consts  --      7.8794                 8.8376                 8.9667
 IR Inten    --     23.0863                20.4233                61.3034

 - Thermochemistry -
 -------------------
 Temperature   298.150 Kelvin.  Pressure   1.00000 Atm.
 Atom     1 has atomic number  6 and mass  12.00000

 Molecular mass:   209.03713 amu.
 Principal axes and moments of inertia in atomic units:
                           1         2         3
     Eigenvalues --  1845.897783153.261324123.17806
           X            0.99994  -0.00686   0.00835
           Y            0.00691   0.99996  -0.00540
           Z           -0.00832   0.00546   0.99995
 This molecule is an asymmetric top.
 Rotational symmetry number  1.
 Warning -- assumption of classical behavior for rotation
           may cause significant error
 Rotational temperatures (Kelvin)      0.04692     0.02747     0.02101
 Rotational constants (GHZ):           0.97770     0.57234     0.43771
 Zero-point vibrational energy     390600.0 (Joules/Mol)
                                   93.35564 (Kcal/Mol)
 Warning -- explicit consideration of  18 degrees of freedom as
           vibrations may cause significant error
 Vibrational temperatures:     80.02    86.09   122.59   154.21   199.32
          (Kelvin)            280.03   313.20   373.55   420.58   468.00
                              483.90   529.58   563.24   670.24   741.76
                              805.57   838.23   883.91   894.72   910.09
                              959.38   975.01  1009.24  1042.74  1072.88
                             1156.42  1165.35  1252.66  1295.08  1310.09
                             1361.74  1413.58  1514.22  1543.85  1629.85
                             1653.26  1713.13  1792.78  1826.82  1909.20
                             1945.48  1995.55  2054.40  2113.24  2121.24
                             2173.03  2259.50  2308.17  2387.80  2479.48
                             4683.22  4692.28  4705.47  4735.22  5141.53
                             5313.07  5431.97

 Zero-point correction=                           0.148772 (Hartree/Particle)
 Thermal correction to Energy=                    0.161249
 Thermal correction to Enthalpy=                  0.162193
 Thermal correction to Gibbs Free Energy=         0.109447
 Sum of electronic and zero-point Energies=          -1017.904714
 Sum of electronic and thermal Energies=             -1017.892236
 Sum of electronic and thermal Enthalpies=           -1017.891292
 Sum of electronic and thermal Free Energies=        -1017.944039

                     E (Thermal)             CV                S
                      KCal/Mol        Cal/Mol-Kelvin    Cal/Mol-Kelvin
 Total                  101.185             47.083            111.015
 Electronic               0.000              0.000              0.000
 Translational            0.889              2.981             41.916
 Rotational               0.889              2.981             31.551
 Vibrational             99.408             41.121             37.548
 Vibration     1          0.596              1.975              4.607
 Vibration     2          0.597              1.973              4.463
 Vibration     3          0.601              1.959              3.767
 Vibration     4          0.606              1.943              3.319
 Vibration     5          0.614              1.915              2.824
 Vibration     6          0.635              1.847              2.183
 Vibration     7          0.646              1.814              1.978
 Vibration     8          0.668              1.746              1.664
 Vibration     9          0.688              1.688              1.461
 Vibration    10          0.709              1.625              1.283
 Vibration    11          0.717              1.603              1.230
 Vibration    12          0.741              1.538              1.088
 Vibration    13          0.759              1.488              0.995
 Vibration    14          0.823              1.326              0.749
 Vibration    15          0.871              1.216              0.620
 Vibration    16          0.916              1.118              0.524
 Vibration    17          0.939              1.069              0.481
 Vibration    18          0.974              1.002              0.426

                           ! Non-Optimized Parameters !
 Normal termination of Gaussian 16 at Thu Dec 10 09:28:06 2020.

 ----------------------------------------------------------------------
 # B3LYP/6-311++G(d,p) empiricaldispersion=gd3bj scf=xqc pop=npa geom=c
 heck
 ----------------------------------------------------------------------

 ---------------------------------------
 CID_130170570_JID_4242_Energie_neutraal
 ---------------------------------------
 Structure from the checkpoint file:  "JID_4242.chk"
 Charge =  0 Multiplicity = 1

 SCF Done:  E(RB3LYP) =  -1018.26317907     A.U. after   17 cycles
 Normal termination of Gaussian 16 at Thu Dec 10 09:30:44 2020.

 ----------------------------------------------------------------------
 # B3LYP/6-311++G(d,p) empiricaldispersion=gd3bj scf=xqc pop=npa geom=c
 heck
 ----------------------------------------------------------------------

 -------------------------------------
 CID_130170570_JID_4242_Energie_kation
 -------------------------------------
 Structure from the checkpoint file:  "JID_4242.chk"
 Charge =  1 Multiplicity = 2

 SCF Done:  E(UB3LYP) =  -1017.97509315     A.U. after   27 cycles
 Normal termination of Gaussian 16 at Thu Dec 10 09:36:29 2020.
 Gaussian 16:  ES64L-G16RevA.03 25-Dec-2016

 ----------------------------------------------------------------------
 # B3LYP/6-311++G(d,p) empiricaldispersion=gd3bj scf=xqc pop=npa geom=c
 heck
 ----------------------------------------------------------------------

 ------------------------------------
 CID_130170570_JID_4242_Energie_anion
 ------------------------------------
 Structure from the checkpoint file:  "JID_4242.chk"
 Charge = -1 Multiplicity = 2

                         Standard orientation:
 ---------------------------------------------------------------------
 Center     Atomic      Atomic             Coordinates (Angstroms)
 Number     Number       Type             X           Y           Z
 ---------------------------------------------------------------------
      1          6           0       -1.892935    2.491701   -0.017027
      2          6           0       -0.541582    2.276471   -0.110394
      3          7           0       -0.323074    0.906878   -0.144889
      4          6           0       -1.547270    0.245972   -0.071681
      5          6           0       -2.526086    1.214936    0.004538
      6          6           0       -1.699951   -1.216979    0.000323
      7          7           0       -1.093713   -2.016815    0.810635
      8          8           0       -0.203022   -1.305370    1.662496
      9          7           0       -2.611380   -1.762698   -0.891351
     10          6           0        0.917124    0.308061   -0.334274
     11          7           0        1.127117   -0.663493   -1.171195
     12          7           0        2.422154   -1.108665   -1.140919
     13          6           0        3.162857   -0.446955   -0.302747
     14         16           0        2.326144    0.796350    0.591070
     15          1           0       -2.378082    3.456332    0.030022
     16          1           0        0.289636    2.959843   -0.197808
     17          1           0       -3.584161    1.020560    0.117763
     18          1           0        0.247661   -2.034265    2.113608
     19          1           0       -3.291955   -1.122631   -1.273384
     20          1           0       -2.978608   -2.667612   -0.625660
     21          1           0        4.220708   -0.636560   -0.170025
 ---------------------------------------------------------------------

 SCF Done:  E(UB3LYP) =  -1018.26424044     A.U. after   33 cycles
 SCF Done:  E(UB3LYP) =  -1018.26424044     a.u. after    1 cycles

 The electronic state is 2-A.
 Alpha  occ. eigenvalues --  -88.73391 -19.02461 -14.24216 -14.20530 -14.20244
 Alpha  occ. eigenvalues --  -14.19042 -14.17936 -10.11307 -10.10248 -10.07247
 Alpha  occ. eigenvalues --  -10.07216 -10.06388 -10.03813 -10.03624  -7.82074
 Alpha  occ. eigenvalues --   -5.78335  -5.78040  -5.77680  -0.93944  -0.88724
 Alpha  occ. eigenvalues --   -0.85481  -0.81156  -0.69966  -0.69381  -0.66203
 Alpha  occ. eigenvalues --   -0.62815  -0.61193  -0.50314  -0.48883  -0.47026
 Alpha  occ. eigenvalues --   -0.44488  -0.43933  -0.39313  -0.38338  -0.34877
 Alpha  occ. eigenvalues --   -0.34286  -0.33279  -0.31691  -0.30493  -0.29047
 Alpha  occ. eigenvalues --   -0.28904  -0.27648  -0.27160  -0.26338  -0.25347
 Alpha  occ. eigenvalues --   -0.20551  -0.16409  -0.15900  -0.15111  -0.14817
 Alpha  occ. eigenvalues --   -0.12095  -0.10806  -0.10595  -0.08415   0.05345
 Alpha virt. eigenvalues --    0.07566   0.08834   0.09342   0.10442   0.10762
 Alpha virt. eigenvalues --    0.11235   0.11574   0.12777   0.13618   0.14291
 Alpha virt. eigenvalues --    0.14867   0.16084   0.16246   0.16805   0.17138

  Beta  occ. eigenvalues --  -88.73336 -19.02458 -14.24252 -14.20467 -14.20213
  Beta  occ. eigenvalues --  -14.19066 -14.17842 -10.11263 -10.09837 -10.07084
  Beta  occ. eigenvalues --  -10.06881 -10.06198 -10.03833 -10.03539  -7.82025
  Beta  occ. eigenvalues --   -5.78315  -5.78022  -5.77487  -0.93894  -0.88427
  Beta  occ. eigenvalues --   -0.85313  -0.81078  -0.69579  -0.69296  -0.65793
  Beta  occ. eigenvalues --   -0.62652  -0.60881  -0.49879  -0.48674  -0.46745
  Beta  occ. eigenvalues --   -0.44198  -0.43861  -0.38998  -0.38180  -0.34811
  Beta  occ. eigenvalues --   -0.34159  -0.33074  -0.31282  -0.30038  -0.28846
  Beta  occ. eigenvalues --   -0.28645  -0.27375  -0.26663  -0.26162  -0.24975
  Beta  occ. eigenvalues --   -0.20444  -0.15990  -0.15589  -0.14370  -0.13974
  Beta  occ. eigenvalues --   -0.11775  -0.10189  -0.09739  -0.07954
  Beta virt. eigenvalues --    0.07781   0.08858   0.09287   0.10236   0.10539
  Beta virt. eigenvalues --    0.10864   0.11607   0.12531   0.12896   0.13807
  Beta virt. eigenvalues --    0.14546   0.15317   0.16055   0.16431   0.16809

 Mulliken charges and spin densities:
               1          2
     1  C   -0.431379  -0.201205
     2  C    0.090658   0.192634
     3  N    0.685089  -0.034506
     4  C   -0.149295  -0.275935
     5  C    0.058891   0.282066
     6  C   -0.225263  -0.025697
     7  N   -0.357949   0.049515
     8  O   -0.086481  -0.001241
     9  N   -0.305270  -0.005710
    10  C   -0.410801   0.213590
    11  N   -0.167647   0.048132
    12  N   -0.054726  -0.016882
    13  C   -0.415218   0.215102
    14  S   -0.062082   0.148818
    15  H    0.123115  -0.003887
    16  H    0.082377   0.029397
    17  H   -0.004492   0.157613
    18  H    0.220516   0.005309
    19  H    0.185146   0.035413
    20  H    0.058460   0.194814
    21  H    0.166351  -0.007340
 Sum of Mulliken charges =  -1.00000   1.00000

 Dipole moment (field-independent basis, Debye):
    X=             -0.8596    Y=              2.0331    Z=              2.1323  Tot=              3.0690
 Quadrupole moment (field-independent basis, Debye-Ang):
   XX=           -109.3796   YY=           -107.8186   ZZ=           -105.0677
   XY=              1.1884   XZ=              8.0610   YZ=             -6.4788

 Summary of Natural Population Analysis:

                                       Natural Population
                Natural  -----------------------------------------------
    Atom  No    Charge         Core      Valence    Rydberg      Total
 -----------------------------------------------------------------------
      C    1   -0.15668      0.99958     2.14842    0.00868     3.15668
      C    2    0.02512      0.99957     1.96551    0.00979     2.97488
      N    3   -0.20973      0.99958     2.69850    0.01165     3.70973
      C    4    0.07172      0.99947     1.91531    0.01350     2.92828
      C    5   -0.12616      0.99953     2.11524    0.01139     3.12616
      C    6    0.19127      0.99958     1.78904    0.02011     2.80873
      N    7   -0.12344      0.99959     2.60887    0.01498     3.62344
      O    8   -0.28728      0.99990     3.28022    0.00716     4.28728
      N    9   -0.39403      0.99971     2.88475    0.00957     3.89403
      C   10    0.18246      0.99959     1.79647    0.02148     2.81754
      N   11   -0.15006      0.99961     2.63329    0.01716     3.65006
      N   12   -0.15877      0.99968     2.64456    0.01453     3.65877
      C   13   -0.01287      0.99968     1.99757    0.01562     3.01287
      S   14    0.16394      4.99946     2.81700    0.01960     7.83606
      H   15    0.09802      0.00000     0.40100    0.00098     0.40198
      H   16    0.09816      0.00000     0.40085    0.00099     0.40184
      H   17    0.09800      0.00000     0.40114    0.00086     0.40200
      H   18    0.22947      0.00000     0.26806    0.00246     0.27053
      H   19    0.18748      0.00000     0.31079    0.00173     0.31252
      H   20    0.18532      0.00000     0.31140    0.00327     0.31468
      H   21    0.08806      0.00000     0.41067    0.00127     0.41194
 =======================================================================
   * Total *   -0.00000     17.99453    35.79868    0.20679    54.00000

 Normal termination of Gaussian 16 at Thu Dec 10 09:43:36 2020.
