 Gaussian 16, Revision A.03,

 -----------------------------------------------------------
 # opt freq B3LYP/6-31G(d) empiricaldispersion=gd3bj scf=xqc
 -----------------------------------------------------------

 -------------------------------
 CID_105710647_JID_9715_neutraal
 -------------------------------
 Symbolic Z-matrix:
 Charge =  0 Multiplicity = 1

 SCF Done:  E(RB3LYP) =  -919.045830048     A.U. after   15 cycles
 SCF Done:  E(RB3LYP) =  -919.053050828     A.U. after   13 cycles
 SCF Done:  E(RB3LYP) =  -919.052365055     A.U. after   12 cycles
 SCF Done:  E(RB3LYP) =  -919.053511933     A.U. after   12 cycles
 SCF Done:  E(RB3LYP) =  -919.054547777     A.U. after   12 cycles
 SCF Done:  E(RB3LYP) =  -919.054895115     A.U. after   12 cycles
 SCF Done:  E(RB3LYP) =  -919.055107165     A.U. after   12 cycles
 SCF Done:  E(RB3LYP) =  -919.055363026     A.U. after   11 cycles
 SCF Done:  E(RB3LYP) =  -919.055554837     A.U. after   12 cycles
 SCF Done:  E(RB3LYP) =  -919.055675766     A.U. after   10 cycles
 SCF Done:  E(RB3LYP) =  -919.055764917     A.U. after   10 cycles
 SCF Done:  E(RB3LYP) =  -919.055766455     A.U. after    8 cycles
 SCF Done:  E(RB3LYP) =  -919.055766998     A.U. after    8 cycles
 SCF Done:  E(RB3LYP) =  -919.055767188     A.U. after    7 cycles
 Optimization completed.
    -- Stationary point found.
 Normal termination of Gaussian 16 at Sat Dec 12 10:05:36 2020.

 --------------------------------------------------------------------
 #N Geom=AllCheck Guess=TCheck SCRF=Check GenChk RB3LYP/6-31G(d) Freq
 --------------------------------------------------------------------

 Structure from the checkpoint file:  "JID_9715.chk"
 -------------------------------
 CID_105710647_JID_9715_neutraal
 -------------------------------
 Charge =  0 Multiplicity = 1

 SCF Done:  E(RB3LYP) =  -919.055767188     A.U. after    1 cycles

  Exact polarizability: 171.810  -1.871 178.468  -0.835   2.958 119.755
 Approx polarizability: 216.967   7.638 251.312  -0.074   9.644 186.781

                      1                      2                      3
                      A                      A                      A
 Frequencies --     20.8536                31.3771                39.2843
 Red. masses --      4.7789                 4.7266                 4.0875
 Frc consts  --      0.0012                 0.0027                 0.0037
 IR Inten    --      0.5995                 0.6556                 1.0102

                      4                      5                      6
                      A                      A                      A
 Frequencies --     70.3119                80.9871                87.1714
 Red. masses --      3.6578                 2.9590                 2.9764
 Frc consts  --      0.0107                 0.0114                 0.0133
 IR Inten    --      0.2747                 0.2002                 4.0503

                      7                      8                      9
                      A                      A                      A
 Frequencies --     95.6670               109.1235               122.3472
 Red. masses --      4.5665                 3.1480                 2.9417
 Frc consts  --      0.0246                 0.0221                 0.0259
 IR Inten    --      0.5499                 4.7178                 2.3777

                     10                     11                     12
                      A                      A                      A
 Frequencies --    144.2360               158.0469               169.7936
 Red. masses --      3.3138                 2.5088                 1.9807
 Frc consts  --      0.0406                 0.0369                 0.0336
 IR Inten    --      5.5148                 1.9391                 2.5825

                     13                     14                     15
                      A                      A                      A
 Frequencies --    178.0357               220.6797               227.8872
 Red. masses --      2.3029                 3.0614                 1.3787
 Frc consts  --      0.0430                 0.0878                 0.0422
 IR Inten    --      2.5113                 5.5229                 0.6443

                     16                     17                     18
                      A                      A                      A
 Frequencies --    261.5923               267.6745               293.5122
 Red. masses --      2.8039                 3.5889                 3.9863
 Frc consts  --      0.1130                 0.1515                 0.2023
 IR Inten    --      5.6468                 5.8832                 4.1277

                     19                     20                     21
                      A                      A                      A
 Frequencies --    330.2674               337.3601               343.1085
 Red. masses --      2.9628                 4.2281                 3.2989
 Frc consts  --      0.1904                 0.2835                 0.2288
 IR Inten    --      7.7932                11.6320                 2.0489

                     22                     23                     24
                      A                      A                      A
 Frequencies --    377.0453               402.3361               424.7440
 Red. masses --      5.1356                 3.6518                 2.4224
 Frc consts  --      0.4302                 0.3483                 0.2575
 IR Inten    --      3.8268                 1.0027                 2.4428

                     25                     26                     27
                      A                      A                      A
 Frequencies --    458.9241               464.2204               487.7595
 Red. masses --      4.3130                 2.3559                 4.1894
 Frc consts  --      0.5352                 0.2991                 0.5872
 IR Inten    --      8.7478                 4.4236                18.4868

                     28                     29                     30
                      A                      A                      A
 Frequencies --    527.9506               551.1129               579.8871
 Red. masses --      2.2207                 2.8538                 1.4351
 Frc consts  --      0.3647                 0.5107                 0.2843
 IR Inten    --      2.6506                 9.8239                63.3509

                     31                     32                     33
                      A                      A                      A
 Frequencies --    611.6772               687.9718               699.8021
 Red. masses --      3.8402                 3.1456                 5.0312
 Frc consts  --      0.8465                 0.8772                 1.4517
 IR Inten    --      4.3279                 2.2178                 8.7589

                     34                     35                     36
                      A                      A                      A
 Frequencies --    745.1718               783.2774               808.8419
 Red. masses --      3.5836                 1.0910                 3.6873
 Frc consts  --      1.1724                 0.3944                 1.4213
 IR Inten    --     18.5307                 0.7440                 5.6403

                     37                     38                     39
                      A                      A                      A
 Frequencies --    829.8548               845.7779               864.2313
 Red. masses --      1.8600                 1.7896                 2.6974
 Frc consts  --      0.7547                 0.7543                 1.1870
 IR Inten    --      5.4460                 3.6884                 7.0288

                     40                     41                     42
                      A                      A                      A
 Frequencies --    899.8241               906.3098               941.2775
 Red. masses --      2.2425                 2.4613                 2.6582
 Frc consts  --      1.0698                 1.1912                 1.3876
 IR Inten    --      5.7172                 2.4377                 2.4696

                     43                     44                     45
                      A                      A                      A
 Frequencies --    969.7566               992.0154               993.1192
 Red. masses --      3.1274                 2.2907                 3.9386
 Frc consts  --      1.7329                 1.3282                 2.2887
 IR Inten    --     32.5307                15.7969                16.2294

                     46                     47                     48
                      A                      A                      A
 Frequencies --   1006.2142              1034.0844              1054.1916
 Red. masses --      2.2034                 2.4947                 2.0007
 Frc consts  --      1.3144                 1.5717                 1.3100
 IR Inten    --      5.9355                 2.7360                 8.3284

                     49                     50                     51
                      A                      A                      A
 Frequencies --   1068.1922              1084.7592              1090.9255
 Red. masses --      1.3407                 1.3701                 2.3268
 Frc consts  --      0.9013                 0.9499                 1.6316
 IR Inten    --      8.0287                 2.4543                 3.4825

                     52                     53                     54
                      A                      A                      A
 Frequencies --   1110.5429              1130.5798              1137.3457
 Red. masses --      2.9429                 2.6400                 1.1467
 Frc consts  --      2.1384                 1.9882                 0.8740
 IR Inten    --     20.2578                43.9985                 0.5830

                     55                     56                     57
                      A                      A                      A
 Frequencies --   1152.3880              1157.7755              1172.0443
 Red. masses --      3.2022                 3.0282                 2.8994
 Frc consts  --      2.5055                 2.3916                 2.3467
 IR Inten    --     99.7817               118.6325                65.0127

                     58                     59                     60
                      A                      A                      A
 Frequencies --   1185.6422              1191.8564              1199.0433
 Red. masses --      1.6680                 1.2865                 1.3784
 Frc consts  --      1.3815                 1.0767                 1.1676
 IR Inten    --      6.2138                 7.3615                 0.7917

                     61                     62                     63
                      A                      A                      A
 Frequencies --   1207.0323              1211.2850              1225.0755
 Red. masses --      1.4229                 2.4344                 1.6144
 Frc consts  --      1.2214                 2.1044                 1.4275
 IR Inten    --      0.2945                26.8003                46.6181

                     64                     65                     66
                      A                      A                      A
 Frequencies --   1236.8614              1241.4305              1245.5021
 Red. masses --      1.7509                 1.7051                 1.9231
 Frc consts  --      1.5782                 1.5483                 1.7577
 IR Inten    --     16.6675                 4.7851                46.1557

                     67                     68                     69
                      A                      A                      A
 Frequencies --   1260.4000              1282.3060              1313.3660
 Red. masses --      1.3414                 1.4228                 1.3109
 Frc consts  --      1.2555                 1.3784                 1.3322
 IR Inten    --     50.2910                23.8436                 9.5482

                     70                     71                     72
                      A                      A                      A
 Frequencies --   1320.3001              1353.0858              1365.3599
 Red. masses --      1.3551                 1.3069                 1.4093
 Frc consts  --      1.3917                 1.4097                 1.5479
 IR Inten    --     22.0627                15.5199                26.7292

                     73                     74                     75
                      A                      A                      A
 Frequencies --   1367.1876              1388.2550              1398.3147
 Red. masses --      1.3105                 1.5748                 1.6132
 Frc consts  --      1.4432                 1.7882                 1.8584
 IR Inten    --      7.8083                46.5094                10.0806

                     76                     77                     78
                      A                      A                      A
 Frequencies --   1412.5322              1415.4198              1434.2732
 Red. masses --      1.3152                 1.9375                 1.8995
 Frc consts  --      1.5462                 2.2870                 2.3022
 IR Inten    --     56.9653               114.1263                70.5364

                     79                     80                     81
                      A                      A                      A
 Frequencies --   1445.5172              1467.2644              1487.6266
 Red. masses --      1.4081                 1.7627                 1.2011
 Frc consts  --      1.7335                 2.2359                 1.5660
 IR Inten    --      0.5728                61.1086                 9.2011

                     82                     83                     84
                      A                      A                      A
 Frequencies --   1497.8026              1502.7761              1505.1490
 Red. masses --      1.0878                 1.1682                 1.1069
 Frc consts  --      1.4379                 1.5543                 1.4774
 IR Inten    --      2.1045                 5.2582                12.4028

                     85                     86                     87
                      A                      A                      A
 Frequencies --   1506.0752              1516.6565              1518.2811
 Red. masses --      1.1521                 1.0759                 1.3325
 Frc consts  --      1.5397                 1.4582                 1.8098
 IR Inten    --      3.7871                 7.2144                19.3262

                     88                     89                     90
                      A                      A                      A
 Frequencies --   1518.9611              1535.1247              1539.0244
 Red. masses --      1.1795                 1.0545                 1.2995
 Frc consts  --      1.6034                 1.4641                 1.8135
 IR Inten    --     14.5747                 6.1063                 5.9892

                     91                     92                     93
                      A                      A                      A
 Frequencies --   1539.3765              1549.9433              1554.4028
 Red. masses --      1.1239                 1.1488                 1.1018
 Frc consts  --      1.5691                 1.6260                 1.5685
 IR Inten    --      3.1647                 9.6956                16.9281

                     94                     95                     96
                      A                      A                      A
 Frequencies --   1732.8266              1808.2509              2989.2067
 Red. masses --      9.9581                 8.8493                 1.0567
 Frc consts  --     17.6172                17.0480                 5.5631
 IR Inten    --    257.2263               420.1560                42.6720

                     97                     98                     99
                      A                      A                      A
 Frequencies --   2998.8469              3001.7464              3003.6580
 Red. masses --      1.0548                 1.0823                 1.0625
 Frc consts  --      5.5888                 5.7457                 5.6478
 IR Inten    --     84.1053                15.2502                33.3024

                    100                    101                    102
                      A                      A                      A
 Frequencies --   3011.8120              3016.2603              3055.3788
 Red. masses --      1.0593                 1.0733                 1.0933
 Frc consts  --      5.6615                 5.7532                 6.0136
 IR Inten    --     85.4639                34.4745                61.8147

                    103                    104                    105
                      A                      A                      A
 Frequencies --   3060.1872              3064.7883              3074.3126
 Red. masses --      1.1030                 1.0674                 1.0693
 Frc consts  --      6.0856                 5.9073                 5.9545
 IR Inten    --     53.7843                15.9451                46.0573

                    106                    107                    108
                      A                      A                      A
 Frequencies --   3077.4012              3139.2361              3139.3252
 Red. masses --      1.0909                 1.1000                 1.0995
 Frc consts  --      6.0869                 6.3869                 6.3841
 IR Inten    --     28.0461                61.1248                 1.9210

                    109                    110                    111
                      A                      A                      A
 Frequencies --   3140.3142              3146.5189              3148.1280
 Red. masses --      1.0972                 1.0526                 1.0901
 Frc consts  --      6.3751                 6.1399                 6.3651
 IR Inten    --      6.2574                15.7151                 5.9749

                    112                    113                    114
                      A                      A                      A
 Frequencies --   3153.0127              3169.6696              3185.3573
 Red. masses --      1.0584                 1.0962                 1.0898
 Frc consts  --      6.1992                 6.4891                 6.5149
 IR Inten    --     10.4874                 2.1998                 3.7249

                    115                    116                    117
                      A                      A                      A
 Frequencies --   3222.7629              3237.5705              3592.8536
 Red. masses --      1.1188                 1.1152                 1.0763
 Frc consts  --      6.8462                 6.8874                 8.1859
 IR Inten    --      1.1939                20.9819                24.0670

 - Thermochemistry -
 -------------------
 Temperature   298.150 Kelvin.  Pressure   1.00000 Atm.
 Atom     1 has atomic number  6 and mass  12.00000

 Molecular mass:   270.15796 amu.
 Principal axes and moments of inertia in atomic units:
                           1         2         3
     Eigenvalues --  3752.037306536.658979373.40525
           X            0.99923  -0.03911  -0.00130
           Y            0.03911   0.99922  -0.00493
           Z            0.00150   0.00488   0.99999
 This molecule is an asymmetric top.
 Rotational symmetry number  1.
 Warning -- assumption of classical behavior for rotation
           may cause significant error
 Rotational temperatures (Kelvin)      0.02308     0.01325     0.00924
 Rotational constants (GHZ):           0.48100     0.27610     0.19254
 Zero-point vibrational energy     931587.0 (Joules/Mol)
                                  222.65464 (Kcal/Mol)
 Warning -- explicit consideration of  31 degrees of freedom as
           vibrations may cause significant error
 Vibrational temperatures:     30.00    45.14    56.52   101.16   116.52
          (Kelvin)            125.42   137.64   157.00   176.03   207.52
                              227.39   244.30   256.15   317.51   327.88
                              376.37   385.12   422.30   475.18   485.39
                              493.66   542.48   578.87   611.11   660.29
                              667.91   701.78   759.60   792.93   834.33
                              880.07   989.84  1006.86  1072.14  1126.96
                             1163.74  1193.98  1216.89  1243.44  1294.65
                             1303.98  1354.29  1395.26  1427.29  1428.88
                             1447.72  1487.82  1516.75  1536.89  1560.73
                             1569.60  1597.82  1626.65  1636.39  1658.03
                             1665.78  1686.31  1705.87  1714.82  1725.16
                             1736.65  1742.77  1762.61  1779.57  1786.14
                             1792.00  1813.43  1844.95  1889.64  1899.62
                             1946.79  1964.45  1967.08  1997.39  2011.86
                             2032.32  2036.47  2063.60  2079.78  2111.07
                             2140.36  2155.00  2162.16  2165.57  2166.91
                             2182.13  2184.47  2185.45  2208.70  2214.31
                             2214.82  2230.02  2236.44  2493.15  2601.67
                             4300.80  4314.67  4318.84  4321.59  4333.33
                             4339.73  4396.01  4402.93  4409.55  4423.25
                             4427.69  4516.66  4516.79  4518.21  4527.14
                             4529.45  4536.48  4560.45  4583.02  4636.84
                             4658.14  5169.31

 Zero-point correction=                           0.354823 (Hartree/Particle)
 Thermal correction to Energy=                    0.374754
 Thermal correction to Enthalpy=                  0.375699
 Thermal correction to Gibbs Free Energy=         0.304785
 Sum of electronic and zero-point Energies=           -918.700944
 Sum of electronic and thermal Energies=              -918.681013
 Sum of electronic and thermal Enthalpies=            -918.680069
 Sum of electronic and thermal Free Energies=         -918.750982

                     E (Thermal)             CV                S
                      KCal/Mol        Cal/Mol-Kelvin    Cal/Mol-Kelvin
 Total                  235.162             73.372            149.250
 Electronic               0.000              0.000              0.000
 Translational            0.889              2.981             42.680
 Rotational               0.889              2.981             33.796
 Vibrational            233.385             67.410             72.773
 Vibration     1          0.593              1.986              6.551
 Vibration     2          0.594              1.983              5.740
 Vibration     3          0.594              1.981              5.295
 Vibration     4          0.598              1.968              4.145
 Vibration     5          0.600              1.962              3.867
 Vibration     6          0.601              1.958              3.723
 Vibration     7          0.603              1.952              3.541
 Vibration     8          0.606              1.942              3.284
 Vibration     9          0.610              1.930              3.063
 Vibration    10          0.616              1.909              2.747
 Vibration    11          0.621              1.894              2.573
 Vibration    12          0.625              1.880              2.438
 Vibration    13          0.628              1.869              2.349
 Vibration    14          0.647              1.810              1.954
 Vibration    15          0.651              1.798              1.896
 Vibration    16          0.669              1.743              1.651
 Vibration    17          0.673              1.733              1.611
 Vibration    18          0.688              1.686              1.454
 Vibration    19          0.713              1.615              1.259
 Vibration    20          0.718              1.601              1.225
 Vibration    21          0.722              1.589              1.198
 Vibration    22          0.748              1.519              1.051
 Vibration    23          0.768              1.465              0.954
 Vibration    24          0.787              1.416              0.876
 Vibration    25          0.817              1.341              0.769
 Vibration    26          0.822              1.329              0.754
 Vibration    27          0.844              1.277              0.689
 Vibration    28          0.883              1.188              0.592
 Vibration    29          0.906              1.137              0.542
 Vibration    30          0.937              1.075              0.486
 Vibration    31          0.971              1.007              0.430

                           ! Non-Optimized Parameters !
 Normal termination of Gaussian 16 at Sat Dec 12 10:25:49 2020.

 ----------------------------------------------------------------------
 # B3LYP/6-311++G(d,p) empiricaldispersion=gd3bj scf=xqc pop=npa geom=c
 heck
 ----------------------------------------------------------------------

 ---------------------------------------
 CID_105710647_JID_9715_Energie_neutraal
 ---------------------------------------
 Structure from the checkpoint file:  "JID_9715.chk"
 Charge =  0 Multiplicity = 1

 SCF Done:  E(RB3LYP) =  -919.325344934     A.U. after   15 cycles
 Normal termination of Gaussian 16 at Sat Dec 12 10:33:50 2020.

 ----------------------------------------------------------------------
 # B3LYP/6-311++G(d,p) empiricaldispersion=gd3bj scf=xqc pop=npa geom=c
 heck
 ----------------------------------------------------------------------

 -------------------------------------
 CID_105710647_JID_9715_Energie_kation
 -------------------------------------
 Structure from the checkpoint file:  "JID_9715.chk"
 Charge =  1 Multiplicity = 2

 SCF Done:  E(UB3LYP) =  -919.019406601     A.U. after   33 cycles
 SCF Done:  E(UB3LYP) =  -919.019406601     a.u. after    1 cycles
 Normal termination of Gaussian 16 at Sat Dec 12 10:57:44 2020.
 Gaussian 16:  ES64L-G16RevA.03 25-Dec-2016

 ----------------------------------------------------------------------
 # B3LYP/6-311++G(d,p) empiricaldispersion=gd3bj scf=xqc pop=npa geom=c
 heck
 ----------------------------------------------------------------------

 ------------------------------------
 CID_105710647_JID_9715_Energie_anion
 ------------------------------------
 Structure from the checkpoint file:  "JID_9715.chk"
 Charge = -1 Multiplicity = 2

                         Standard orientation:
 ---------------------------------------------------------------------
 Center     Atomic      Atomic             Coordinates (Angstroms)
 Number     Number       Type             X           Y           Z
 ---------------------------------------------------------------------
      1          6           0        2.542885    3.133272   -0.055255
      2          8           0        3.024995    1.876700    0.380622
      3          6           0        2.707614    0.824283   -0.503340
      4          6           0        2.750965   -0.475259    0.300804
      5          6           0        1.582552   -0.586829    1.283876
      6          7           0        0.270481   -0.698391    0.632761
      7          6           0       -0.126191   -2.090002    0.355635
      8          6           0       -1.269879   -2.322523   -0.632182
      9          6           0       -2.626638   -1.989348   -0.033723
     10          8           0       -3.513133   -2.815807    0.127596
     11          7           0       -2.743205   -0.689860    0.377967
     12          6           0       -1.884747    0.398751   -0.090162
     13          6           0       -0.494259    0.436764    0.584991
     14          8           0       -0.069938    1.515839    0.996213
     15          6           0       -2.594193    1.715205    0.126494
     16          6           0       -2.442594    2.818656   -0.878162
     17          6           0       -3.750895    2.072338   -0.778894
     18          8           0        2.730200   -1.604068   -0.570442
     19          6           0        4.002188   -1.981455   -1.061184
     20          1           0        2.843982    3.866340    0.697572
     21          1           0        1.448272    3.124069   -0.132952
     22          1           0        2.980094    3.420666   -1.025354
     23          1           0        1.706749    0.949765   -0.938146
     24          1           0        3.427888    0.783428   -1.336957
     25          1           0        3.677916   -0.475278    0.895838
     26          1           0        1.725320   -1.470579    1.915058
     27          1           0        1.580362    0.306100    1.908715
     28          1           0        0.767448   -2.574473   -0.038064
     29          1           0       -0.377445   -2.580638    1.307930
     30          1           0       -1.292428   -3.384615   -0.884759
     31          1           0       -1.090548   -1.765083   -1.559859
     32          1           0       -3.666380   -0.426676    0.701738
     33          1           0       -1.710433    0.286866   -1.171105
     34          1           0       -2.659083    2.015900    1.168190
     35          1           0       -2.391715    3.836942   -0.506004
     36          1           0       -1.813412    2.632706   -1.744611
     37          1           0       -4.006064    1.379874   -1.577289
     38          1           0       -4.606164    2.580153   -0.343063
     39          1           0        4.478438   -1.181885   -1.645875
     40          1           0        4.680017   -2.263185   -0.241007
     41          1           0        3.848413   -2.847059   -1.710397
 ---------------------------------------------------------------------

 SCF Done:  E(UB3LYP) =  -919.314922569     A.U. after   33 cycles
 SCF Done:  E(UB3LYP) =  -919.314922569     a.u. after    1 cycles

 The electronic state is 2-A.
 Alpha  occ. eigenvalues --  -19.04027 -19.03391 -19.00640 -18.99822 -14.25923
 Alpha  occ. eigenvalues --  -14.25375 -10.18882 -10.18347 -10.14307 -10.13673
 Alpha  occ. eigenvalues --  -10.12666 -10.12101 -10.12039 -10.11695 -10.11338
 Alpha  occ. eigenvalues --  -10.10175 -10.09777 -10.09219 -10.09010  -0.95938
 Alpha  occ. eigenvalues --   -0.95611  -0.95043  -0.94432  -0.85598  -0.84328
 Alpha  occ. eigenvalues --   -0.78000  -0.70681  -0.68803  -0.65305  -0.62172
 Alpha  occ. eigenvalues --   -0.59547  -0.59198  -0.55689  -0.52563  -0.51414
 Alpha  occ. eigenvalues --   -0.50168  -0.49382  -0.45753  -0.44128  -0.43020
 Alpha  occ. eigenvalues --   -0.42048  -0.41805  -0.40308  -0.39544  -0.38758
 Alpha  occ. eigenvalues --   -0.37936  -0.37202  -0.36454  -0.36115  -0.34862
 Alpha  occ. eigenvalues --   -0.34472  -0.34216  -0.33206  -0.32634  -0.31496
 Alpha  occ. eigenvalues --   -0.30326  -0.29281  -0.28775  -0.28584  -0.28267
 Alpha  occ. eigenvalues --   -0.27660  -0.27245  -0.26509  -0.23733  -0.23298
 Alpha  occ. eigenvalues --   -0.22248  -0.21707  -0.19756  -0.18424  -0.17561
 Alpha  occ. eigenvalues --   -0.16937  -0.15598  -0.15485   0.03936
 Alpha virt. eigenvalues --    0.05552   0.06415   0.06694   0.07247   0.07992
 Alpha virt. eigenvalues --    0.08055   0.08777   0.09137   0.09444   0.09959
 Alpha virt. eigenvalues --    0.10196   0.10317   0.10434   0.11410   0.11475

  Beta  occ. eigenvalues --  -19.04017 -19.03385 -19.00637 -18.99792 -14.25927
  Beta  occ. eigenvalues --  -14.25366 -10.18882 -10.18307 -10.14294 -10.13668
  Beta  occ. eigenvalues --  -10.12655 -10.12084 -10.11989 -10.11684 -10.11334
  Beta  occ. eigenvalues --  -10.10173 -10.09754 -10.09194 -10.08992  -0.95912
  Beta  occ. eigenvalues --   -0.95601  -0.95000  -0.94420  -0.85579  -0.84315
  Beta  occ. eigenvalues --   -0.77984  -0.70660  -0.68770  -0.65264  -0.62144
  Beta  occ. eigenvalues --   -0.59502  -0.59139  -0.55647  -0.52507  -0.51366
  Beta  occ. eigenvalues --   -0.50131  -0.49350  -0.45706  -0.44092  -0.42981
  Beta  occ. eigenvalues --   -0.42020  -0.41769  -0.40274  -0.39521  -0.38734
  Beta  occ. eigenvalues --   -0.37892  -0.37160  -0.36426  -0.36074  -0.34826
  Beta  occ. eigenvalues --   -0.34446  -0.34184  -0.33176  -0.32582  -0.31465
  Beta  occ. eigenvalues --   -0.30308  -0.29257  -0.28747  -0.28554  -0.28222
  Beta  occ. eigenvalues --   -0.27631  -0.27157  -0.26481  -0.23695  -0.23253
  Beta  occ. eigenvalues --   -0.22225  -0.21679  -0.19735  -0.18399  -0.17549
  Beta  occ. eigenvalues --   -0.16916  -0.15562  -0.15451
  Beta virt. eigenvalues --    0.05930   0.06434   0.06885   0.07253   0.07630
  Beta virt. eigenvalues --    0.08339   0.08423   0.08886   0.09366   0.09589
  Beta virt. eigenvalues --    0.10220   0.10366   0.10661   0.10789   0.11600

 Mulliken charges and spin densities:
               1          2
     1  C   -0.023028  -0.291596
     2  O   -0.082825   0.008295
     3  C   -0.096765  -0.317807
     4  C   -0.404872   0.184377
     5  C   -0.201810   0.025014
     6  N    0.220158   0.057579
     7  C   -0.120249  -0.132409
     8  C    0.045587  -0.444421
     9  C    0.100004  -0.014206
    10  O   -0.341489   0.001273
    11  N   -0.105063   0.049001
    12  C    1.521818  -1.889032
    13  C   -0.865120   0.244898
    14  O   -0.227490   0.008219
    15  C   -1.721668   1.843418
    16  C    0.161274  -0.599424
    17  C    0.746212  -1.148795
    18  O   -0.137658   0.047053
    19  C    1.145107  -1.373249
    20  H    0.071998   0.050612
    21  H    0.174645   0.032240
    22  H   -0.072926   0.184885
    23  H    0.214042  -0.019046
    24  H   -0.168372   0.316483
    25  H    0.080942   0.109685
    26  H   -0.111875   0.291445
    27  H    0.264054  -0.031057
    28  H    0.262794  -0.025895
    29  H    0.065210   0.124403
    30  H   -0.026949   0.272782
    31  H   -0.244858   0.423508
    32  H    0.284400   0.034583
    33  H    0.093717   0.165022
    34  H    0.076242   0.196779
    35  H    0.045565   0.098679
    36  H   -0.255051   0.401871
    37  H   -0.124179   0.295362
    38  H   -0.162730   0.315851
    39  H   -0.333182   0.465993
    40  H   -0.338282   0.478979
    41  H   -0.407330   0.558646
 Sum of Mulliken charges =  -1.00000   1.00000

 Dipole moment (field-independent basis, Debye):
    X=             -1.7497    Y=              2.9148    Z=              4.0094  Tot=              5.2567
 Quadrupole moment (field-independent basis, Debye-Ang):
   XX=           -205.6598   YY=           -173.7960   ZZ=           -153.3816
   XY=              3.3119   XZ=              2.5405   YZ=             -2.1953

 Summary of Natural Population Analysis:

                                       Natural Population
                Natural  -----------------------------------------------
    Atom  No    Charge         Core      Valence    Rydberg      Total
 -----------------------------------------------------------------------
      C    1   -0.09702      0.99962     2.08960    0.00781     3.09702
      O    2   -0.29963      0.99988     3.29073    0.00903     4.29963
      C    3   -0.01808      0.99955     2.00535    0.01318     3.01808
      C    4    0.05696      0.99953     1.92820    0.01530     2.94304
      C    5   -0.09449      0.99957     2.08336    0.01156     3.09449
      N    6   -0.25493      0.99963     2.74461    0.01069     3.75493
      C    7   -0.08146      0.99959     2.07125    0.01063     3.08146
      C    8   -0.24200      0.99958     2.23417    0.00825     3.24200
      C    9    0.34857      0.99966     1.62944    0.02233     2.65143
      O   10   -0.31905      0.99988     3.31331    0.00587     4.31905
      N   11   -0.32122      0.99965     2.81230    0.00927     3.82122
      C   12   -0.04926      0.99952     2.03632    0.01342     3.04926
      C   13    0.35098      0.99962     1.62627    0.02313     2.64902
      O   14   -0.32368      0.99988     3.31869    0.00511     4.32368
      C   15   -0.11598      0.99958     2.10465    0.01175     3.11598
      C   16   -0.18778      0.99961     2.17835    0.00982     3.18778
      C   17   -0.20153      0.99962     2.19310    0.00881     3.20153
      O   18   -0.30685      0.99988     3.29604    0.01094     4.30685
      C   19   -0.09516      0.99961     2.08635    0.00921     3.09516
      H   20    0.08606      0.00000     0.41304    0.00090     0.41394
      H   21    0.09250      0.00000     0.40619    0.00131     0.40750
      H   22    0.07413      0.00000     0.42446    0.00140     0.42587
      H   23    0.08483      0.00000     0.41276    0.00240     0.41517
      H   24    0.08319      0.00000     0.41519    0.00162     0.41681
      H   25    0.08675      0.00000     0.41145    0.00181     0.41325
      H   26    0.09737      0.00000     0.40146    0.00116     0.40263
      H   27    0.12222      0.00000     0.37641    0.00137     0.37778
      H   28    0.11670      0.00000     0.38133    0.00197     0.38330
      H   29    0.09042      0.00000     0.40830    0.00128     0.40958
      H   30    0.11797      0.00000     0.38112    0.00090     0.38203
      H   31    0.11358      0.00000     0.38472    0.00170     0.38642
      H   32    0.19679      0.00000     0.30086    0.00235     0.30321
      H   33    0.10648      0.00000     0.39043    0.00309     0.39352
      H   34    0.11172      0.00000     0.38720    0.00108     0.38828
      H   35    0.10339      0.00000     0.39584    0.00077     0.39661
      H   36    0.10518      0.00000     0.39360    0.00122     0.39482
      H   37    0.10557      0.00000     0.39318    0.00125     0.39443
      H   38    0.10295      0.00000     0.39619    0.00086     0.39705
      H   39    0.08097      0.00000     0.41692    0.00212     0.41903
      H   40    0.07910      0.00000     0.41899    0.00191     0.42090
      H   41    0.09374      0.00000     0.40465    0.00161     0.40626
 =======================================================================
   * Total *   -0.00000     18.99344    53.75636    0.25020    73.00000

 Normal termination of Gaussian 16 at Sat Dec 12 11:21:11 2020.
