 Gaussian 16, Revision A.03,

 -----------------------------------------------------------
 # opt freq B3LYP/6-31G(d) empiricaldispersion=gd3bj scf=xqc
 -----------------------------------------------------------

 ------------------------------
 CID_10419779_JID_3620_neutraal
 ------------------------------
 Symbolic Z-matrix:
 Charge =  0 Multiplicity = 1

 SCF Done:  E(RB3LYP) =  -610.069111809     A.U. after   14 cycles
 SCF Done:  E(RB3LYP) =  -610.073493144     A.U. after   12 cycles
 SCF Done:  E(RB3LYP) =  -610.074366510     A.U. after   12 cycles
 SCF Done:  E(RB3LYP) =  -610.074761292     A.U. after   12 cycles
 SCF Done:  E(RB3LYP) =  -610.075150471     A.U. after   12 cycles
 SCF Done:  E(RB3LYP) =  -610.075461487     A.U. after   12 cycles
 SCF Done:  E(RB3LYP) =  -610.075638065     A.U. after   12 cycles
 SCF Done:  E(RB3LYP) =  -610.075818572     A.U. after   12 cycles
 SCF Done:  E(RB3LYP) =  -610.075843023     A.U. after   10 cycles
 SCF Done:  E(RB3LYP) =  -610.075850586     A.U. after    9 cycles
 SCF Done:  E(RB3LYP) =  -610.075851308     A.U. after    8 cycles
 SCF Done:  E(RB3LYP) =  -610.075851708     A.U. after    8 cycles
 SCF Done:  E(RB3LYP) =  -610.075851742     A.U. after    7 cycles
 Optimization completed.
    -- Stationary point found.
 Normal termination of Gaussian 16 at Wed Dec  9 23:46:32 2020.

 --------------------------------------------------------------------
 #N Geom=AllCheck Guess=TCheck SCRF=Check GenChk RB3LYP/6-31G(d) Freq
 --------------------------------------------------------------------

 Structure from the checkpoint file:  "JID_3620.chk"
 ------------------------------
 CID_10419779_JID_3620_neutraal
 ------------------------------
 Charge =  0 Multiplicity = 1

 SCF Done:  E(RB3LYP) =  -610.075851742     A.U. after    1 cycles

  Exact polarizability: 164.825 -12.472  96.620   2.288  14.028  73.901
 Approx polarizability: 231.610 -19.931 156.545   7.670  29.426 119.553

                      1                      2                      3
                      A                      A                      A
 Frequencies --     26.0412                80.5376                97.3718
 Red. masses --      5.4981                 4.3602                 3.8482
 Frc consts  --      0.0022                 0.0167                 0.0215
 IR Inten    --      2.1318                 0.7896                 0.6011

                      4                      5                      6
                      A                      A                      A
 Frequencies --    124.0625               179.9741               216.6457
 Red. masses --      5.1265                 4.4083                 2.9225
 Frc consts  --      0.0465                 0.0841                 0.0808
 IR Inten    --      1.1588                 2.1630                 2.3089

                      7                      8                      9
                      A                      A                      A
 Frequencies --    255.4502               320.6547               343.9415
 Red. masses --      4.1443                 2.7512                 2.6108
 Frc consts  --      0.1593                 0.1667                 0.1820
 IR Inten    --      2.8143                10.7575                12.2452

                     10                     11                     12
                      A                      A                      A
 Frequencies --    426.0376               446.8064               472.4989
 Red. masses --      2.3650                 3.5487                 4.5184
 Frc consts  --      0.2529                 0.4174                 0.5943
 IR Inten    --      8.2150                 1.2651                 0.3627

                     13                     14                     15
                      A                      A                      A
 Frequencies --    544.4689               600.9565               637.5658
 Red. masses --      2.0455                 3.4542                 5.8049
 Frc consts  --      0.3573                 0.7350                 1.3902
 IR Inten    --      0.7264                 9.7528                 1.8727

                     16                     17                     18
                      A                      A                      A
 Frequencies --    665.1578               724.0741               742.7164
 Red. masses --      2.4784                 4.5512                 2.9703
 Frc consts  --      0.6461                 1.4059                 0.9654
 IR Inten    --      1.1059                 0.9078                 1.9598

                     19                     20                     21
                      A                      A                      A
 Frequencies --    779.1319               792.2306               805.5552
 Red. masses --      1.3985                 1.6604                 2.1736
 Frc consts  --      0.5002                 0.6140                 0.8310
 IR Inten    --     39.9723                21.3025               136.3265

                     22                     23                     24
                      A                      A                      A
 Frequencies --    861.5191               875.3150               903.8496
 Red. masses --      3.2842                 2.4351                 1.3034
 Frc consts  --      1.4362                 1.0993                 0.6274
 IR Inten    --     23.0180                11.4612                 3.2937

                     25                     26                     27
                      A                      A                      A
 Frequencies --    919.7597               931.4351               946.9059
 Red. masses --      2.1028                 5.3990                 2.2856
 Frc consts  --      1.0481                 2.7598                 1.2074
 IR Inten    --      6.4426                27.6868                 2.0038

                     28                     29                     30
                      A                      A                      A
 Frequencies --    957.6772               990.6539              1010.9851
 Red. masses --      6.4386                 1.2562                 4.6136
 Frc consts  --      3.4792                 0.7264                 2.7783
 IR Inten    --     10.1661                 0.3229                 2.6409

                     31                     32                     33
                      A                      A                      A
 Frequencies --   1037.9991              1058.3037              1082.0162
 Red. masses --      2.5545                 2.4463                 1.4661
 Frc consts  --      1.6216                 1.6143                 1.0113
 IR Inten    --      5.3317                 0.9307                 3.8046

                     34                     35                     36
                      A                      A                      A
 Frequencies --   1085.9362              1145.4676              1155.1649
 Red. masses --      1.9464                 5.1646                 2.7356
 Frc consts  --      1.3524                 3.9925                 2.1507
 IR Inten    --      9.1451               143.8394                 6.0773

                     37                     38                     39
                      A                      A                      A
 Frequencies --   1175.8251              1211.1165              1231.7387
 Red. masses --      2.4393                 4.6588                 1.4425
 Frc consts  --      1.9870                 4.0262                 1.2894
 IR Inten    --      1.8750                 9.7151                17.9219

                     40                     41                     42
                      A                      A                      A
 Frequencies --   1260.1162              1274.7858              1291.0891
 Red. masses --      1.1519                 1.3459                 1.1701
 Frc consts  --      1.0777                 1.2887                 1.1492
 IR Inten    --     34.1277                 4.4964                 0.6624

                     43                     44                     45
                      A                      A                      A
 Frequencies --   1310.2604              1343.5514              1379.9849
 Red. masses --      1.3532                 1.2253                 1.2560
 Frc consts  --      1.3688                 1.3032                 1.4092
 IR Inten    --     18.9384                 8.5291                 8.0182

                     46                     47                     48
                      A                      A                      A
 Frequencies --   1388.1208              1389.0392              1412.2580
 Red. masses --      2.8487                 1.3072                 1.3649
 Frc consts  --      3.2341                 1.4860                 1.6039
 IR Inten    --     11.3892                25.7925                 3.6025

                     49                     50                     51
                      A                      A                      A
 Frequencies --   1438.5952              1452.3420              1503.7769
 Red. masses --      1.3249                 1.5888                 1.2558
 Frc consts  --      1.6155                 1.9745                 1.6732
 IR Inten    --      4.7938                 4.7571                 4.9276

                     52                     53                     54
                      A                      A                      A
 Frequencies --   1508.3397              1516.0083              1523.1946
 Red. masses --      1.1170                 1.4044                 1.1267
 Frc consts  --      1.4972                 1.9017                 1.5402
 IR Inten    --     10.7826                 6.4007                 2.5074

                     55                     56                     57
                      A                      A                      A
 Frequencies --   1525.9816              1627.1535              1716.5146
 Red. masses --      2.1958                 6.1179                 7.1959
 Frc consts  --      3.0126                 9.5436                12.4920
 IR Inten    --     19.0742                16.9461                 5.0853

                     58                     59                     60
                      A                      A                      A
 Frequencies --   2954.5632              2968.7203              3050.8054
 Red. masses --      1.0720                 1.0717                 1.0843
 Frc consts  --      5.5136                 5.5647                 5.9459
 IR Inten    --     31.7028                99.3505                20.6379

                     61                     62                     63
                      A                      A                      A
 Frequencies --   3057.1484              3101.1422              3106.2395
 Red. masses --      1.0610                 1.1006                 1.0970
 Frc consts  --      5.8428                 6.2360                 6.2364
 IR Inten    --     26.9511                56.3216                40.0469

                     64                     65                     66
                      A                      A                      A
 Frequencies --   3120.9258              3189.5103              3209.6664
 Red. masses --      1.0916                 1.0854                 1.0934
 Frc consts  --      6.2643                 6.5054                 6.6364
 IR Inten    --     26.3185                 0.3760                 9.1605

                     67                     68                     69
                      A                      A                      A
 Frequencies --   3259.7151              3318.3559              3484.3395
 Red. masses --      1.0954                 1.0983                 1.0742
 Frc consts  --      6.8577                 7.1255                 7.6835
 IR Inten    --      6.7431                 1.2496                 0.6880

 - Thermochemistry -
 -------------------
 Temperature   298.150 Kelvin.  Pressure   1.00000 Atm.
 Atom     1 has atomic number  6 and mass  12.00000

 Molecular mass:   180.08988 amu.
 Principal axes and moments of inertia in atomic units:
                           1         2         3
     Eigenvalues --   796.622024724.254114965.24337
           X            0.99998  -0.00583  -0.00027
           Y            0.00584   0.99665   0.08152
           Z           -0.00020  -0.08152   0.99667
 This molecule is an asymmetric top.
 Rotational symmetry number  1.
 Warning -- assumption of classical behavior for rotation
           may cause significant error
 Rotational temperatures (Kelvin)      0.10873     0.01833     0.01744
 Rotational constants (GHZ):           2.26549     0.38202     0.36347
 Zero-point vibrational energy     547565.4 (Joules/Mol)
                                  130.87128 (Kcal/Mol)
 Warning -- explicit consideration of  14 degrees of freedom as
           vibrations may cause significant error
 Vibrational temperatures:     37.47   115.88   140.10   178.50   258.94
          (Kelvin)            311.70   367.54   461.35   494.86   612.97
                              642.85   679.82   783.37   864.64   917.32
                              957.01  1041.78  1068.60  1121.00  1139.84
                             1159.01  1239.53  1259.38  1300.44  1323.33
                             1340.13  1362.39  1377.88  1425.33  1454.58
                             1493.45  1522.66  1556.78  1562.42  1648.07
                             1662.02  1691.75  1742.53  1772.20  1813.03
                             1834.13  1857.59  1885.17  1933.07  1985.49
                             1997.20  1998.52  2031.92  2069.82  2089.60
                             2163.60  2170.16  2181.20  2191.54  2195.55
                             2341.11  2469.68  4250.96  4271.33  4389.43
                             4398.55  4461.85  4469.19  4490.32  4588.99
                             4617.99  4690.00  4774.37  5013.19

 Zero-point correction=                           0.208557 (Hartree/Particle)
 Thermal correction to Energy=                    0.219474
 Thermal correction to Enthalpy=                  0.220418
 Thermal correction to Gibbs Free Energy=         0.170489
 Sum of electronic and zero-point Energies=           -609.867295
 Sum of electronic and thermal Energies=              -609.856378
 Sum of electronic and thermal Enthalpies=            -609.855434
 Sum of electronic and thermal Free Energies=         -609.905363

                     E (Thermal)             CV                S
                      KCal/Mol        Cal/Mol-Kelvin    Cal/Mol-Kelvin
 Total                  137.722             42.364            105.085
 Electronic               0.000              0.000              0.000
 Translational            0.889              2.981             41.472
 Rotational               0.889              2.981             31.303
 Vibrational            135.944             36.402             32.310
 Vibration     1          0.593              1.985              6.110
 Vibration     2          0.600              1.962              3.878
 Vibration     3          0.603              1.951              3.506
 Vibration     4          0.610              1.929              3.036
 Vibration     5          0.629              1.867              2.329
 Vibration     6          0.645              1.816              1.987
 Vibration     7          0.666              1.754              1.693
 Vibration     8          0.706              1.634              1.307
 Vibration     9          0.723              1.588              1.194
 Vibration    10          0.788              1.414              0.872
 Vibration    11          0.806              1.368              0.805
 Vibration    12          0.829              1.311              0.731
 Vibration    13          0.900              1.152              0.556
 Vibration    14          0.959              1.030              0.448

 Optimization completed.
    -- Stationary point found.
 Normal termination of Gaussian 16 at Wed Dec  9 23:52:10 2020.

 ----------------------------------------------------------------------
 # B3LYP/6-311++G(d,p) empiricaldispersion=gd3bj scf=xqc pop=npa geom=c
 heck
 ----------------------------------------------------------------------

 --------------------------------------
 CID_10419779_JID_3620_Energie_neutraal
 --------------------------------------
 Structure from the checkpoint file:  "JID_3620.chk"
 Charge =  0 Multiplicity = 1

 SCF Done:  E(RB3LYP) =  -610.247519215     A.U. after   16 cycles
 Normal termination of Gaussian 16 at Wed Dec  9 23:54:28 2020.

 ----------------------------------------------------------------------
 # B3LYP/6-311++G(d,p) empiricaldispersion=gd3bj scf=xqc pop=npa geom=c
 heck
 ----------------------------------------------------------------------

 ------------------------------------
 CID_10419779_JID_3620_Energie_kation
 ------------------------------------
 Structure from the checkpoint file:  "JID_3620.chk"
 Charge =  1 Multiplicity = 2

 SCF Done:  E(UB3LYP) =  -609.945863100     A.U. after   23 cycles
 Normal termination of Gaussian 16 at Wed Dec  9 23:58:50 2020.
 Gaussian 16:  ES64L-G16RevA.03 25-Dec-2016

 ----------------------------------------------------------------------
 # B3LYP/6-311++G(d,p) empiricaldispersion=gd3bj scf=xqc pop=npa geom=c
 heck
 ----------------------------------------------------------------------

 -----------------------------------
 CID_10419779_JID_3620_Energie_anion
 -----------------------------------
 Structure from the checkpoint file:  "JID_3620.chk"
 Charge = -1 Multiplicity = 2

                         Standard orientation:
 ---------------------------------------------------------------------
 Center     Atomic      Atomic             Coordinates (Angstroms)
 Number     Number       Type             X           Y           Z
 ---------------------------------------------------------------------
      1          6           0        3.376801   -0.680825    0.324578
      2          6           0        3.545798    0.593775   -0.499213
      3          8           0        2.329033    0.918357   -1.161629
      4          6           0        1.282134    1.144350   -0.233251
      5          6           0        1.013964   -0.106502    0.635559
      6          7           0        2.251100   -0.608846    1.266033
      7          6           0        0.363356   -1.211652   -0.155719
      8          6           0       -0.936941   -1.306234   -0.477878
      9          6           0       -2.001022   -0.384066   -0.134375
     10          6           0       -2.112639    0.849862    0.463134
     11          6           0       -3.506226    1.109800    0.454876
     12          7           0       -4.196598    0.138007   -0.097256
     13          8           0       -3.246806   -0.810257   -0.472755
     14          1           0        3.205843   -1.520866   -0.359308
     15          1           0        4.287961   -0.905305    0.890467
     16          1           0        3.850734    1.431076    0.154429
     17          1           0        4.301475    0.473326   -1.281862
     18          1           0        0.403076    1.419217   -0.821976
     19          1           0        1.542599    1.990191    0.429843
     20          1           0        0.339260    0.183105    1.451059
     21          1           0        2.500662    0.021072    2.027140
     22          1           0        1.018504   -2.011235   -0.487689
     23          1           0       -1.276623   -2.168428   -1.045344
     24          1           0       -1.332353    1.489370    0.839676
     25          1           0       -4.031816    1.978495    0.830927
 ---------------------------------------------------------------------

 SCF Done:  E(UB3LYP) =  -610.248945074     A.U. after   32 cycles

 The electronic state is 2-A.
 Alpha  occ. eigenvalues --  -19.05556 -19.01632 -14.21277 -14.19121 -10.10980
 Alpha  occ. eigenvalues --  -10.09930 -10.09509 -10.08859 -10.08517 -10.07327
 Alpha  occ. eigenvalues --  -10.03789 -10.03714 -10.03051  -0.99895  -0.93308
 Alpha  occ. eigenvalues --   -0.79739  -0.73184  -0.68707  -0.66021  -0.62107
 Alpha  occ. eigenvalues --   -0.56708  -0.54651  -0.50521  -0.47913  -0.45603
 Alpha  occ. eigenvalues --   -0.42493  -0.39851  -0.37392  -0.36835  -0.35970
 Alpha  occ. eigenvalues --   -0.35210  -0.33317  -0.33196  -0.32345  -0.29698
 Alpha  occ. eigenvalues --   -0.28026  -0.27790  -0.26229  -0.24987  -0.24302
 Alpha  occ. eigenvalues --   -0.23151  -0.20749  -0.18235  -0.17431  -0.17204
 Alpha  occ. eigenvalues --   -0.16473  -0.11206  -0.10313   0.04519
 Alpha virt. eigenvalues --    0.06441   0.07973   0.09060   0.09311   0.10167
 Alpha virt. eigenvalues --    0.11042   0.11414   0.12441   0.12655   0.13802
 Alpha virt. eigenvalues --    0.14096   0.14539   0.14896   0.16176   0.17271

  Beta  occ. eigenvalues --  -19.05291 -19.01618 -14.21010 -14.19089 -10.10961
  Beta  occ. eigenvalues --  -10.09881 -10.09339 -10.08849 -10.08546 -10.07364
  Beta  occ. eigenvalues --  -10.03724 -10.03679 -10.02671  -0.99456  -0.93282
  Beta  occ. eigenvalues --   -0.79662  -0.72815  -0.68379  -0.65825  -0.61747
  Beta  occ. eigenvalues --   -0.56602  -0.54552  -0.50168  -0.47792  -0.45308
  Beta  occ. eigenvalues --   -0.42236  -0.39764  -0.37277  -0.36755  -0.35899
  Beta  occ. eigenvalues --   -0.35069  -0.33026  -0.32422  -0.32077  -0.29530
  Beta  occ. eigenvalues --   -0.27903  -0.27658  -0.26170  -0.24781  -0.24191
  Beta  occ. eigenvalues --   -0.23022  -0.20559  -0.17396  -0.17112  -0.16766
  Beta  occ. eigenvalues --   -0.15481  -0.10992  -0.08929
  Beta virt. eigenvalues --    0.07103   0.08296   0.09128   0.09466   0.09900
  Beta virt. eigenvalues --    0.10293   0.11294   0.11716   0.12465   0.12736
  Beta virt. eigenvalues --    0.14108   0.14369   0.14716   0.15028   0.16140

 Mulliken charges and spin densities:
               1          2
     1  C   -0.243527   0.008395
     2  C    0.522429  -0.735616
     3  O   -0.137458   0.031485
     4  C    0.052834  -0.661663
     5  C   -0.381244   0.522976
     6  N   -0.017160  -0.076746
     7  C    0.001587   0.096522
     8  C   -0.073351  -0.109603
     9  C   -0.627880  -0.084652
    10  C    0.188085   0.170115
    11  C   -0.166843  -0.101018
    12  N   -0.353880   0.124149
    13  O    0.111742   0.051014
    14  H    0.213645  -0.085635
    15  H   -0.375777   0.532142
    16  H   -0.180819   0.291014
    17  H   -0.023710   0.176979
    18  H    0.262926  -0.076758
    19  H   -0.355157   0.491750
    20  H    0.157346   0.045256
    21  H    0.086739   0.162010
    22  H    0.103349  -0.002061
    23  H    0.181900  -0.004123
    24  H   -0.072678   0.207690
    25  H    0.126900   0.026377
 Sum of Mulliken charges =  -1.00000   1.00000

 Dipole moment (field-independent basis, Debye):
    X=              1.7611    Y=             -0.1955    Z=             -0.3733  Tot=              1.8108
 Quadrupole moment (field-independent basis, Debye-Ang):
   XX=           -147.6538   YY=            -97.0400   ZZ=            -96.4070
   XY=             -9.2821   XZ=             -8.3836   YZ=              3.1583

 Summary of Natural Population Analysis:

                                       Natural Population
                Natural  -----------------------------------------------
    Atom  No    Charge         Core      Valence    Rydberg      Total
 -----------------------------------------------------------------------
      C    1   -0.10521      0.99963     2.09401    0.01158     3.10521
      C    2   -0.01888      0.99958     2.00622    0.01308     3.01888
      O    3   -0.29796      0.99989     3.28901    0.00907     4.29796
      C    4   -0.01369      0.99956     1.99965    0.01449     3.01369
      C    5   -0.05016      0.99957     2.03752    0.01307     3.05016
      N    6   -0.33216      0.99975     2.81891    0.01350     3.83216
      C    7    0.00528      0.99953     1.98527    0.00992     2.99472
      C    8   -0.13683      0.99951     2.12879    0.00854     3.13683
      C    9    0.18456      0.99950     1.80181    0.01413     2.81544
      C   10   -0.18260      0.99951     2.17405    0.00904     3.18260
      C   11   -0.02684      0.99966     2.01187    0.01532     3.02684
      N   12   -0.05871      0.99971     2.54560    0.01340     3.55871
      O   13   -0.15118      0.99986     3.14038    0.01095     4.15118
      H   14    0.09135      0.00000     0.40747    0.00117     0.40865
      H   15    0.09518      0.00000     0.40357    0.00124     0.40482
      H   16    0.07533      0.00000     0.42235    0.00232     0.42467
      H   17    0.08712      0.00000     0.41181    0.00108     0.41288
      H   18    0.09768      0.00000     0.40101    0.00131     0.40232
      H   19    0.07430      0.00000     0.42340    0.00230     0.42570
      H   20    0.10424      0.00000     0.39369    0.00207     0.39576
      H   21    0.17133      0.00000     0.32666    0.00201     0.32867
      H   22    0.08776      0.00000     0.41116    0.00108     0.41224
      H   23    0.09943      0.00000     0.39908    0.00149     0.40057
      H   24    0.10672      0.00000     0.39215    0.00113     0.39328
      H   25    0.09395      0.00000     0.40476    0.00130     0.40605
 =======================================================================
   * Total *   -0.00000     12.99525    34.83020    0.17455    48.00000

 Normal termination of Gaussian 16 at Thu Dec 10 00:04:53 2020.
