 Gaussian 16, Revision A.03,

 -----------------------------------------------------------
 # opt freq B3LYP/6-31G(d) empiricaldispersion=gd3bj scf=xqc
 -----------------------------------------------------------

 ------------------------------
 CID_82128797_JID_7103_neutraal
 ------------------------------
 Symbolic Z-matrix:
 Charge =  0 Multiplicity = 1

 SCF Done:  E(RB3LYP) =  -799.746116542     A.U. after   15 cycles
 SCF Done:  E(RB3LYP) =  -799.748811953     A.U. after   12 cycles
 SCF Done:  E(RB3LYP) =  -799.748711322     A.U. after   12 cycles
 SCF Done:  E(RB3LYP) =  -799.749529372     A.U. after   11 cycles
 SCF Done:  E(RB3LYP) =  -799.749730016     A.U. after   11 cycles
 SCF Done:  E(RB3LYP) =  -799.750012375     A.U. after   12 cycles
 SCF Done:  E(RB3LYP) =  -799.750231691     A.U. after   14 cycles
 SCF Done:  E(RB3LYP) =  -799.750359177     A.U. after   10 cycles
 SCF Done:  E(RB3LYP) =  -799.750499562     A.U. after   12 cycles
 SCF Done:  E(RB3LYP) =  -799.750526417     A.U. after   10 cycles
 SCF Done:  E(RB3LYP) =  -799.750539580     A.U. after   10 cycles
 SCF Done:  E(RB3LYP) =  -799.750541244     A.U. after   10 cycles
 SCF Done:  E(RB3LYP) =  -799.750542099     A.U. after   10 cycles
 SCF Done:  E(RB3LYP) =  -799.750542288     A.U. after    8 cycles
 SCF Done:  E(RB3LYP) =  -799.750542485     A.U. after    8 cycles
 SCF Done:  E(RB3LYP) =  -799.750542500     A.U. after    7 cycles
 Optimization completed.
    -- Stationary point found.
 Normal termination of Gaussian 16 at Fri Dec 11 11:54:21 2020.

 --------------------------------------------------------------------
 #N Geom=AllCheck Guess=TCheck SCRF=Check GenChk RB3LYP/6-31G(d) Freq
 --------------------------------------------------------------------

 Structure from the checkpoint file:  "JID_7103.chk"
 ------------------------------
 CID_82128797_JID_7103_neutraal
 ------------------------------
 Charge =  0 Multiplicity = 1

 SCF Done:  E(RB3LYP) =  -799.750542500     A.U. after    1 cycles

  Exact polarizability: 197.598 -23.407 167.305   3.939   5.192  77.869
 Approx polarizability: 288.233 -28.741 264.299   4.756  13.779 129.366

                      1                      2                      3
                      A                      A                      A
 Frequencies --     12.6558                37.9500                51.5914
 Red. masses --      4.6442                 6.7973                 3.8239
 Frc consts  --      0.0004                 0.0058                 0.0060
 IR Inten    --      0.6632                 0.6318                 0.1719

                      4                      5                      6
                      A                      A                      A
 Frequencies --     57.3575                82.9813               104.4238
 Red. masses --      9.2260                 6.0503                 5.0173
 Frc consts  --      0.0179                 0.0245                 0.0322
 IR Inten    --      1.4903                 0.4902                 0.0508

                      7                      8                      9
                      A                      A                      A
 Frequencies --    117.9882               171.1679               186.8684
 Red. masses --      1.0381                 3.4480                 5.3297
 Frc consts  --      0.0085                 0.0595                 0.1097
 IR Inten    --      0.0258                 1.0995                 1.3002

                     10                     11                     12
                      A                      A                      A
 Frequencies --    215.5896               264.5744               281.9909
 Red. masses --      4.5821                 3.0367                 3.2185
 Frc consts  --      0.1255                 0.1252                 0.1508
 IR Inten    --      2.9642                 4.5802                 1.0824

                     13                     14                     15
                      A                      A                      A
 Frequencies --    326.6205               339.3111               383.5241
 Red. masses --      6.8573                 3.9588                 3.5459
 Frc consts  --      0.4310                 0.2685                 0.3073
 IR Inten    --      0.0528                 0.3967                 2.2082

                     16                     17                     18
                      A                      A                      A
 Frequencies --    388.6988               472.1985               528.2499
 Red. masses --      2.6404                 4.1278                 2.5582
 Frc consts  --      0.2350                 0.5423                 0.4206
 IR Inten    --      0.0017                11.0657                15.0437

                     19                     20                     21
                      A                      A                      A
 Frequencies --    530.1555               565.5534               617.5204
 Red. masses --      3.3857                 3.7861                 2.8271
 Frc consts  --      0.5607                 0.7135                 0.6352
 IR Inten    --      8.6783                18.2056                10.5607

                     22                     23                     24
                      A                      A                      A
 Frequencies --    630.5917               665.4741               683.9154
 Red. masses --      3.3203                 3.9494                 5.5119
 Frc consts  --      0.7779                 1.0305                 1.5190
 IR Inten    --     34.1175                 3.8517                22.3692

                     25                     26                     27
                      A                      A                      A
 Frequencies --    686.3213               703.6588               727.5921
 Red. masses --      6.8659                 1.8832                 6.1821
 Frc consts  --      1.9055                 0.5494                 1.9283
 IR Inten    --      1.8460               122.9007                11.9266

                     28                     29                     30
                      A                      A                      A
 Frequencies --    759.1123               781.8925               821.1627
 Red. masses --      3.4961                 4.3638                 3.0481
 Frc consts  --      1.1870                 1.5718                 1.2110
 IR Inten    --      0.8535                12.3631                 8.1020

                     31                     32                     33
                      A                      A                      A
 Frequencies --    851.0483               898.1359               961.7243
 Red. masses --      1.5505                 1.2491                 2.4766
 Frc consts  --      0.6617                 0.5936                 1.3496
 IR Inten    --     19.8190                 0.2883                15.6640

                     34                     35                     36
                      A                      A                      A
 Frequencies --    978.9031               985.5487               996.1745
 Red. masses --      6.3066                 1.3220                 2.0389
 Frc consts  --      3.5606                 0.7565                 1.1921
 IR Inten    --      2.3971                 0.6558                 4.5406

                     37                     38                     39
                      A                      A                      A
 Frequencies --    999.9122              1005.2701              1013.2162
 Red. masses --      1.4184                 1.9993                 7.4600
 Frc consts  --      0.8356                 1.1904                 4.5123
 IR Inten    --      0.1531                 0.6957                10.0472

                     40                     41                     42
                      A                      A                      A
 Frequencies --   1062.1226              1078.4892              1096.8122
 Red. masses --      2.7336                 1.4983                 2.8102
 Frc consts  --      1.8169                 1.0268                 1.9919
 IR Inten    --     10.4632                 0.6300                 5.7823

                     43                     44                     45
                      A                      A                      A
 Frequencies --   1107.9746              1122.2217              1166.8620
 Red. masses --      2.3945                 1.6812                 2.8191
 Frc consts  --      1.7319                 1.2475                 2.2615
 IR Inten    --      4.2071                 1.6826                12.7996

                     46                     47                     48
                      A                      A                      A
 Frequencies --   1173.3021              1213.9951              1234.2119
 Red. masses --      2.1305                 3.1206                 1.4714
 Frc consts  --      1.7280                 2.7097                 1.3206
 IR Inten    --    204.4705                10.2762                40.8175

                     49                     50                     51
                      A                      A                      A
 Frequencies --   1254.3181              1275.6916              1302.0927
 Red. masses --      1.2998                 1.4566                10.0004
 Frc consts  --      1.2049                 1.3966                 9.9897
 IR Inten    --      4.6627                 8.0103                 0.4298

                     52                     53                     54
                      A                      A                      A
 Frequencies --   1335.7103              1350.3596              1370.2569
 Red. masses --      1.4872                 2.8980                 1.8235
 Frc consts  --      1.5633                 3.1135                 2.0173
 IR Inten    --      4.9995                13.9418                 6.9187

                     55                     56                     57
                      A                      A                      A
 Frequencies --   1388.0252              1400.9865              1436.0791
 Red. masses --      1.8012                 2.5002                 2.0599
 Frc consts  --      2.0446                 2.8913                 2.5030
 IR Inten    --     21.6200                 1.4054                42.8018

                     58                     59                     60
                      A                      A                      A
 Frequencies --   1451.0181              1461.4622              1493.6822
 Red. masses --      1.4479                 2.1044                 1.1090
 Frc consts  --      1.7961                 2.6482                 1.4578
 IR Inten    --      1.4690                25.3411                13.9513

                     61                     62                     63
                      A                      A                      A
 Frequencies --   1502.1004              1506.3968              1517.5706
 Red. masses --      1.0479                 1.0820                 1.0895
 Frc consts  --      1.3930                 1.4466                 1.4783
 IR Inten    --      4.8939                 8.4015                 4.8373

                     64                     65                     66
                      A                      A                      A
 Frequencies --   1536.1079              1594.4257              1627.6095
 Red. masses --      2.2542                 7.5529                 8.0996
 Frc consts  --      3.1339                11.3129                12.6420
 IR Inten    --     18.3403                31.4103                 2.8908

                     67                     68                     69
                      A                      A                      A
 Frequencies --   1657.2510              1674.3642              1848.4277
 Red. masses --      5.8300                 7.9599                 9.4827
 Frc consts  --      9.4339                13.1479                19.0891
 IR Inten    --    158.9235                11.1731               233.3116

                     70                     71                     72
                      A                      A                      A
 Frequencies --   3047.6226              3056.8714              3064.5557
 Red. masses --      1.0380                 1.0624                 1.0655
 Frc consts  --      5.6801                 5.8489                 5.8957
 IR Inten    --     29.2930                13.2266                21.9850

                     73                     74                     75
                      A                      A                      A
 Frequencies --   3093.5463              3099.5579              3138.4724
 Red. masses --      1.1033                 1.1015                 1.0953
 Frc consts  --      6.2209                 6.2352                 6.3563
 IR Inten    --     13.2638                10.9716                 9.5897

                     76                     77                     78
                      A                      A                      A
 Frequencies --   3142.6830              3175.1415              3178.6157
 Red. masses --      1.0994                 1.0882                 1.0915
 Frc consts  --      6.3976                 6.4640                 6.4977
 IR Inten    --     10.0941                38.3693                27.3646

                     79                     80                     81
                      A                      A                      A
 Frequencies --   3227.6444              3229.6721              3683.9035
 Red. masses --      1.0929                 1.0936                 1.0638
 Frc consts  --      6.7084                 6.7206                 8.5059
 IR Inten    --      5.3643                 2.6811                39.6468

 - Thermochemistry -
 -------------------
 Temperature   298.150 Kelvin.  Pressure   1.00000 Atm.
 Atom     1 has atomic number  6 and mass  12.00000

 Molecular mass:   232.08479 amu.
 Principal axes and moments of inertia in atomic units:
                           1         2         3
     Eigenvalues --  2694.064905815.668668141.85628
           X            0.99985  -0.01615   0.00550
           Y            0.01612   0.99986   0.00546
           Z           -0.00558  -0.00537   0.99997
 This molecule is an asymmetric top.
 Rotational symmetry number  1.
 Warning -- assumption of classical behavior for rotation
           may cause significant error
 Rotational temperatures (Kelvin)      0.03215     0.01489     0.01064
 Rotational constants (GHZ):           0.66990     0.31032     0.22166
 Zero-point vibrational energy     599716.9 (Joules/Mol)
                                  143.33578 (Kcal/Mol)
 Warning -- explicit consideration of  21 degrees of freedom as
           vibrations may cause significant error
 Vibrational temperatures:     18.21    54.60    74.23    82.52   119.39
          (Kelvin)            150.24   169.76   246.27   268.86   310.19
                              380.66   405.72   469.93   488.19   551.81
                              559.25   679.39   760.03   762.78   813.71
                              888.47   907.28   957.47   984.00   987.46
                             1012.41  1046.84  1092.19  1124.97  1181.47
                             1224.47  1292.22  1383.71  1408.42  1417.98
                             1433.27  1438.65  1446.36  1457.79  1528.16
                             1551.71  1578.07  1594.13  1614.63  1678.85
                             1688.12  1746.67  1775.76  1804.68  1835.44
                             1873.42  1921.79  1942.87  1971.49  1997.06
                             2015.71  2066.20  2087.69  2102.72  2149.08
                             2161.19  2167.37  2183.45  2210.12  2294.02
                             2341.77  2384.41  2409.04  2659.48  4384.85
                             4398.16  4409.21  4450.92  4459.57  4515.56
                             4521.62  4568.32  4573.32  4643.86  4646.78
                             5300.32

 Zero-point correction=                           0.228420 (Hartree/Particle)
 Thermal correction to Energy=                    0.243585
 Thermal correction to Enthalpy=                  0.244529
 Thermal correction to Gibbs Free Energy=         0.182954
 Sum of electronic and zero-point Energies=           -799.522122
 Sum of electronic and thermal Energies=              -799.506957
 Sum of electronic and thermal Enthalpies=            -799.506013
 Sum of electronic and thermal Free Energies=         -799.567589

                     E (Thermal)             CV                S
                      KCal/Mol        Cal/Mol-Kelvin    Cal/Mol-Kelvin
 Total                  152.852             55.866            129.597
 Electronic               0.000              0.000              0.000
 Translational            0.889              2.981             42.228
 Rotational               0.889              2.981             33.211
 Vibrational            151.075             49.904             54.158
 Vibration     1          0.593              1.987              7.543
 Vibration     2          0.594              1.982              5.363
 Vibration     3          0.596              1.977              4.755
 Vibration     4          0.596              1.975              4.546
 Vibration     5          0.600              1.961              3.819
 Vibration     6          0.605              1.946              3.370
 Vibration     7          0.608              1.934              3.133
 Vibration     8          0.626              1.878              2.423
 Vibration     9          0.632              1.858              2.259
 Vibration    10          0.645              1.817              1.996
 Vibration    11          0.671              1.738              1.631
 Vibration    12          0.681              1.707              1.522
 Vibration    13          0.710              1.622              1.277
 Vibration    14          0.719              1.597              1.215
 Vibration    15          0.753              1.505              1.025
 Vibration    16          0.757              1.494              1.005
 Vibration    17          0.829              1.312              0.731
 Vibration    18          0.883              1.187              0.591
 Vibration    19          0.885              1.183              0.587
 Vibration    20          0.921              1.106              0.513
 Vibration    21          0.977              0.995              0.420

 Optimization completed.
    -- Stationary point found.
 Normal termination of Gaussian 16 at Fri Dec 11 12:03:35 2020.

 ----------------------------------------------------------------------
 # B3LYP/6-311++G(d,p) empiricaldispersion=gd3bj scf=xqc pop=npa geom=c
 heck
 ----------------------------------------------------------------------

 --------------------------------------
 CID_82128797_JID_7103_Energie_neutraal
 --------------------------------------
 Structure from the checkpoint file:  "JID_7103.chk"
 Charge =  0 Multiplicity = 1

 SCF Done:  E(RB3LYP) =  -799.974633378     A.U. after   15 cycles
 Normal termination of Gaussian 16 at Fri Dec 11 12:07:57 2020.

 ----------------------------------------------------------------------
 # B3LYP/6-311++G(d,p) empiricaldispersion=gd3bj scf=xqc pop=npa geom=c
 heck
 ----------------------------------------------------------------------

 ------------------------------------
 CID_82128797_JID_7103_Energie_kation
 ------------------------------------
 Structure from the checkpoint file:  "JID_7103.chk"
 Charge =  1 Multiplicity = 2

 SCF Done:  E(UB3LYP) =  -799.674640691     A.U. after   23 cycles
 Normal termination of Gaussian 16 at Fri Dec 11 12:15:41 2020.
 Gaussian 16:  ES64L-G16RevA.03 25-Dec-2016

 ----------------------------------------------------------------------
 # B3LYP/6-311++G(d,p) empiricaldispersion=gd3bj scf=xqc pop=npa geom=c
 heck
 ----------------------------------------------------------------------

 -----------------------------------
 CID_82128797_JID_7103_Energie_anion
 -----------------------------------
 Structure from the checkpoint file:  "JID_7103.chk"
 Charge = -1 Multiplicity = 2

                         Standard orientation:
 ---------------------------------------------------------------------
 Center     Atomic      Atomic             Coordinates (Angstroms)
 Number     Number       Type             X           Y           Z
 ---------------------------------------------------------------------
      1          6           0       -1.325104    3.644962    0.099040
      2          6           0       -0.868228    2.236442    0.009141
      3          6           0       -1.491014    1.027602   -0.117793
      4          7           0       -0.528314    0.029077   -0.148257
      5          6           0        0.615966    0.642349   -0.038499
      6          8           0        0.487364    1.996902    0.062953
      7          6           0        1.945226    0.053721   -0.022645
      8          6           0        2.089892   -1.335215   -0.146580
      9          6           0        3.372781   -1.871812   -0.129214
     10          7           0        4.490736   -1.142102   -0.000370
     11          6           0        4.337208    0.182732    0.117184
     12          6           0        3.103251    0.829210    0.112571
     13          6           0       -2.952810    0.698020   -0.208414
     14          6           0       -3.181389   -0.705038   -0.780912
     15          6           0       -2.773938   -1.776867    0.208777
     16          8           0       -2.874901   -1.689017    1.412525
     17          8           0       -2.330226   -2.897432   -0.407684
     18          1           0       -1.076718    4.088492    1.071120
     19          1           0       -0.863113    4.266455   -0.677221
     20          1           0       -2.410438    3.689054   -0.025485
     21          1           0        1.211921   -1.962573   -0.254314
     22          1           0        3.514273   -2.946727   -0.224078
     23          1           0        5.252843    0.761967    0.221218
     24          1           0        3.040157    1.907111    0.211847
     25          1           0       -3.409724    0.738361    0.787595
     26          1           0       -3.466367    1.440034   -0.830267
     27          1           0       -4.249866   -0.849194   -0.986691
     28          1           0       -2.641719   -0.852579   -1.719003
     29          1           0       -2.127137   -3.529482    0.307389
 ---------------------------------------------------------------------

 SCF Done:  E(UB3LYP) =  -799.987133098     A.U. after   31 cycles

 The electronic state is 2-A.
 Alpha  occ. eigenvalues --  -19.07531 -19.03759 -19.01384 -14.14752 -14.13401
 Alpha  occ. eigenvalues --  -10.20814 -10.09468 -10.08889 -10.08514 -10.07746
 Alpha  occ. eigenvalues --  -10.07238 -10.06637 -10.04664 -10.04506 -10.02419
 Alpha  occ. eigenvalues --  -10.01850 -10.01633  -1.01311  -0.97948  -0.92221
 Alpha  occ. eigenvalues --   -0.78051  -0.77532  -0.70166  -0.67326  -0.64592
 Alpha  occ. eigenvalues --   -0.60355  -0.59699  -0.55771  -0.50663  -0.48209
 Alpha  occ. eigenvalues --   -0.47625  -0.44681  -0.43542  -0.40433  -0.39359
 Alpha  occ. eigenvalues --   -0.38765  -0.36185  -0.34773  -0.33510  -0.32671
 Alpha  occ. eigenvalues --   -0.32119  -0.31963  -0.30826  -0.30014  -0.29895
 Alpha  occ. eigenvalues --   -0.29193  -0.27743  -0.27410  -0.26799  -0.24569
 Alpha  occ. eigenvalues --   -0.24474  -0.23978  -0.22787  -0.20685  -0.18559
 Alpha  occ. eigenvalues --   -0.18135  -0.15336  -0.14624  -0.11409  -0.10269
 Alpha  occ. eigenvalues --   -0.08596   0.04562
 Alpha virt. eigenvalues --    0.06683   0.07569   0.08437   0.09956   0.10268
 Alpha virt. eigenvalues --    0.10605   0.10678   0.11417   0.11812   0.12162
 Alpha virt. eigenvalues --    0.12966   0.13320   0.14215   0.14876   0.15286

  Beta  occ. eigenvalues --  -19.07530 -19.03509 -19.01374 -14.14484 -14.12916
  Beta  occ. eigenvalues --  -10.20811 -10.09300 -10.08889 -10.08312 -10.07740
  Beta  occ. eigenvalues --  -10.07257 -10.06732 -10.04689 -10.04519 -10.02132
  Beta  occ. eigenvalues --  -10.01733 -10.01523  -1.01304  -0.97539  -0.92208
  Beta  occ. eigenvalues --   -0.77460  -0.77095  -0.70036  -0.66949  -0.64138
  Beta  occ. eigenvalues --   -0.60089  -0.59635  -0.55518  -0.50497  -0.47746
  Beta  occ. eigenvalues --   -0.47436  -0.44479  -0.43339  -0.40414  -0.39240
  Beta  occ. eigenvalues --   -0.38722  -0.36111  -0.34176  -0.33303  -0.32467
  Beta  occ. eigenvalues --   -0.31957  -0.31793  -0.30702  -0.29932  -0.29441
  Beta  occ. eigenvalues --   -0.29016  -0.27656  -0.27339  -0.26691  -0.24369
  Beta  occ. eigenvalues --   -0.23764  -0.23205  -0.22750  -0.20545  -0.18549
  Beta  occ. eigenvalues --   -0.16618  -0.14264  -0.13611  -0.10487  -0.09712
  Beta  occ. eigenvalues --   -0.07176
  Beta virt. eigenvalues --    0.06628   0.07511   0.08394   0.09861   0.10208
  Beta virt. eigenvalues --    0.10346   0.10566   0.10658   0.11405   0.11920
  Beta virt. eigenvalues --    0.12101   0.12956   0.13578   0.14157   0.14898

 Mulliken charges and spin densities:
               1          2
     1  C   -0.398047  -0.018176
     2  C    0.199322   0.134720
     3  C    0.340136  -0.047730
     4  N    0.139662   0.132842
     5  C   -0.859143   0.082777
     6  O   -0.071094   0.059546
     7  C    0.105083   0.067554
     8  C    0.184606   0.177526
     9  C   -0.775294  -0.006572
    10  N   -0.141037   0.221008
    11  C   -0.601972  -0.023852
    12  C    0.163845   0.181769
    13  C   -0.387860   0.003000
    14  C   -0.136816  -0.029880
    15  C   -0.234478  -0.017465
    16  O   -0.251317   0.006128
    17  O   -0.118862   0.003638
    18  H    0.117895   0.036373
    19  H    0.142329   0.004427
    20  H    0.122328   0.006033
    21  H    0.162735  -0.008077
    22  H    0.113467  -0.002041
    23  H    0.108627  -0.001894
    24  H    0.155435  -0.006073
    25  H    0.195061  -0.004733
    26  H    0.098790   0.013510
    27  H    0.137135   0.025463
    28  H    0.232430  -0.004333
    29  H    0.257036   0.014512
 Sum of Mulliken charges =  -1.00000   1.00000

 Dipole moment (field-independent basis, Debye):
    X=             -8.9716    Y=              1.7829    Z=             -1.3248  Tot=              9.2424
 Quadrupole moment (field-independent basis, Debye-Ang):
   XX=           -156.5421   YY=           -109.3257   ZZ=           -112.2020
   XY=              7.5443   XZ=              5.5333   YZ=              0.1188

 Summary of Natural Population Analysis:

                                       Natural Population
                Natural  -----------------------------------------------
    Atom  No    Charge         Core      Valence    Rydberg      Total
 -----------------------------------------------------------------------
      C    1   -0.30359      0.99964     2.29985    0.00409     3.30359
      C    2    0.15827      0.99941     1.83008    0.01224     2.84173
      C    3    0.01587      0.99948     1.97242    0.01224     2.98413
      N    4   -0.23835      0.99966     2.72619    0.01250     3.73835
      C    5    0.29105      0.99956     1.69158    0.01781     2.70895
      O    6   -0.22378      0.99985     3.21508    0.00885     4.22378
      C    7    0.00272      0.99937     1.98772    0.01018     2.99728
      C    8   -0.08270      0.99945     2.07529    0.00796     3.08270
      C    9    0.00249      0.99962     1.98084    0.01704     2.99751
      N   10   -0.18961      0.99972     2.67335    0.01655     3.68961
      C   11    0.01434      0.99947     1.97009    0.01609     2.98566
      C   12   -0.09327      0.99946     2.08487    0.00894     3.09327
      C   13   -0.19661      0.99960     2.19039    0.00662     3.19661
      C   14   -0.23443      0.99958     2.22690    0.00794     3.23443
      C   15    0.41437      0.99973     1.55864    0.02725     2.58563
      O   16   -0.31091      0.99986     3.30429    0.00675     4.31091
      O   17   -0.34346      0.99987     3.33734    0.00625     4.34346
      H   18    0.10244      0.00000     0.39627    0.00129     0.39756
      H   19    0.10179      0.00000     0.39693    0.00127     0.39821
      H   20    0.10014      0.00000     0.39904    0.00082     0.39986
      H   21    0.10248      0.00000     0.39626    0.00125     0.39752
      H   22    0.07738      0.00000     0.42108    0.00154     0.42262
      H   23    0.07636      0.00000     0.42160    0.00203     0.42364
      H   24    0.09788      0.00000     0.40084    0.00127     0.40212
      H   25    0.10641      0.00000     0.39228    0.00132     0.39359
      H   26    0.09745      0.00000     0.40145    0.00110     0.40255
      H   27    0.10442      0.00000     0.39379    0.00179     0.39558
      H   28    0.11560      0.00000     0.38336    0.00104     0.38440
      H   29    0.23526      0.00000     0.26046    0.00428     0.26474
 =======================================================================
   * Total *    0.00003     16.99335    43.78831    0.21831    60.99997

 Normal termination of Gaussian 16 at Fri Dec 11 12:25:40 2020.
