 Gaussian 16, Revision A.03,

 -----------------------------------------------------------
 # opt freq B3LYP/6-31G(d) empiricaldispersion=gd3bj scf=xqc
 -----------------------------------------------------------

 -------------------------------
 CID_132546093_JID_4644_neutraal
 -------------------------------
 Symbolic Z-matrix:
 Charge =  0 Multiplicity = 1

 SCF Done:  E(RB3LYP) =  -653.283406367     A.U. after   13 cycles
 SCF Done:  E(RB3LYP) =  -653.286877404     A.U. after   12 cycles
 SCF Done:  E(RB3LYP) =  -653.287268446     A.U. after   11 cycles
 SCF Done:  E(RB3LYP) =  -653.287350002     A.U. after   11 cycles
 SCF Done:  E(RB3LYP) =  -653.287388972     A.U. after   10 cycles
 SCF Done:  E(RB3LYP) =  -653.287408824     A.U. after   10 cycles
 SCF Done:  E(RB3LYP) =  -653.287420072     A.U. after   10 cycles
 SCF Done:  E(RB3LYP) =  -653.287423625     A.U. after    9 cycles
 SCF Done:  E(RB3LYP) =  -653.287424355     A.U. after    8 cycles
 SCF Done:  E(RB3LYP) =  -653.287424539     A.U. after    8 cycles
 SCF Done:  E(RB3LYP) =  -653.287425283     A.U. after    8 cycles
 SCF Done:  E(RB3LYP) =  -653.287426164     A.U. after    8 cycles
 SCF Done:  E(RB3LYP) =  -653.287426540     A.U. after    8 cycles
 SCF Done:  E(RB3LYP) =  -653.287426754     A.U. after    7 cycles
 Optimization completed.
    -- Stationary point found.
 Normal termination of Gaussian 16 at Thu Dec 10 10:18:07 2020.

 --------------------------------------------------------------------
 #N Geom=AllCheck Guess=TCheck SCRF=Check GenChk RB3LYP/6-31G(d) Freq
 --------------------------------------------------------------------

 Structure from the checkpoint file:  "JID_4644.chk"
 -------------------------------
 CID_132546093_JID_4644_neutraal
 -------------------------------
 Charge =  0 Multiplicity = 1

 SCF Done:  E(RB3LYP) =  -653.287426754     A.U. after    1 cycles

  Exact polarizability: 150.854   1.686 126.828 -10.117   7.825  84.473
 Approx polarizability: 207.219   4.432 209.414 -23.921  17.615 125.567

                      1                      2                      3
                      A                      A                      A
 Frequencies --     27.6940                49.6815                65.4130
 Red. masses --      3.7571                 3.7095                 3.4158
 Frc consts  --      0.0017                 0.0054                 0.0086
 IR Inten    --      0.0619                 0.7404                 6.2569

                      4                      5                      6
                      A                      A                      A
 Frequencies --     88.2494               138.2387               162.7871
 Red. masses --      2.5714                 2.9499                 3.2820
 Frc consts  --      0.0118                 0.0332                 0.0512
 IR Inten    --      1.9434                 0.5938                 3.9311

                      7                      8                      9
                      A                      A                      A
 Frequencies --    176.8224               245.1371               274.1411
 Red. masses --      3.0765                 2.0539                 1.8414
 Frc consts  --      0.0567                 0.0727                 0.0815
 IR Inten    --      1.3326                 2.3618                 0.8079

                     10                     11                     12
                      A                      A                      A
 Frequencies --    312.6104               328.9551               334.3919
 Red. masses --      3.4383                 1.9763                 1.7241
 Frc consts  --      0.1980                 0.1260                 0.1136
 IR Inten    --      3.9876                28.2702                38.2653

                     13                     14                     15
                      A                      A                      A
 Frequencies --    357.5615               391.5519               438.4617
 Red. masses --      2.0340                 3.3661                 3.1266
 Frc consts  --      0.1532                 0.3041                 0.3541
 IR Inten    --     47.4897                 5.6294                 6.0408

                     16                     17                     18
                      A                      A                      A
 Frequencies --    454.7051               468.6172               560.9761
 Red. masses --      6.6059                 2.7149                 4.3815
 Frc consts  --      0.8047                 0.3513                 0.8124
 IR Inten    --      0.1383                 3.7952                 5.9923

                     19                     20                     21
                      A                      A                      A
 Frequencies --    585.1159               612.4207               720.1965
 Red. masses --      4.9186                 4.1701                 4.2947
 Frc consts  --      0.9922                 0.9215                 1.3124
 IR Inten    --     20.2218                 2.4076                 0.5481

                     22                     23                     24
                      A                      A                      A
 Frequencies --    732.0413               761.2151               812.4956
 Red. masses --      7.6727                 5.4472                 3.0941
 Frc consts  --      2.4225                 1.8597                 1.2034
 IR Inten    --      3.4597                10.2410                 3.4133

                     25                     26                     27
                      A                      A                      A
 Frequencies --    819.7064               829.3034               854.1726
 Red. masses --      1.2811                 1.4469                 2.6134
 Frc consts  --      0.5072                 0.5863                 1.1234
 IR Inten    --      5.5605                21.6780                 7.4703

                     28                     29                     30
                      A                      A                      A
 Frequencies --    878.1678               910.8305               936.1971
 Red. masses --      2.6077                 1.4628                 4.4659
 Frc consts  --      1.1849                 0.7150                 2.3062
 IR Inten    --      5.6771                11.1217                21.3952

                     31                     32                     33
                      A                      A                      A
 Frequencies --    994.9816              1025.3528              1034.3101
 Red. masses --      2.8850                 1.8784                 1.6253
 Frc consts  --      1.6828                 1.1636                 1.0244
 IR Inten    --     18.8047                 4.4109                 0.6489

                     34                     35                     36
                      A                      A                      A
 Frequencies --   1070.0901              1082.2943              1097.9494
 Red. masses --      1.8584                 3.7854                 2.7424
 Frc consts  --      1.2538                 2.6125                 1.9478
 IR Inten    --      6.5561                63.5770                46.2388

                     37                     38                     39
                      A                      A                      A
 Frequencies --   1115.8168              1151.1710              1177.7496
 Red. masses --      9.0602                 2.8221                 1.9334
 Frc consts  --      6.6462                 2.2035                 1.5801
 IR Inten    --     61.2379               106.8523                46.4971

                     40                     41                     42
                      A                      A                      A
 Frequencies --   1190.0913              1210.8854              1213.7791
 Red. masses --      1.1156                 1.5957                 1.7355
 Frc consts  --      0.9309                 1.3785                 1.5064
 IR Inten    --      1.6938                44.1088                44.3998

                     43                     44                     45
                      A                      A                      A
 Frequencies --   1227.5759              1247.0114              1287.2024
 Red. masses --      1.0622                 2.0769                 1.4107
 Frc consts  --      0.9431                 1.9029                 1.3771
 IR Inten    --      1.1430                 4.3616                23.9479

                     46                     47                     48
                      A                      A                      A
 Frequencies --   1314.2266              1330.1272              1347.5955
 Red. masses --      2.1830                 1.9926                 1.2088
 Frc consts  --      2.2215                 2.0771                 1.2934
 IR Inten    --     44.8292                31.5070                 8.3538

                     49                     50                     51
                      A                      A                      A
 Frequencies --   1357.5697              1371.1635              1409.1623
 Red. masses --      1.3045                 1.9599                 1.2939
 Frc consts  --      1.4165                 2.1710                 1.5138
 IR Inten    --     13.6494                20.6477                34.2803

                     52                     53                     54
                      A                      A                      A
 Frequencies --   1422.1090              1435.9127              1444.2258
 Red. masses --      1.5916                 1.6287                 1.3218
 Frc consts  --      1.8964                 1.9786                 1.6244
 IR Inten    --     40.0242                 1.9124                19.7808

                     55                     56                     57
                      A                      A                      A
 Frequencies --   1485.1783              1518.4738              1525.0081
 Red. masses --      5.1860                 1.0562                 1.0673
 Frc consts  --      6.7397                 1.4349                 1.4625
 IR Inten    --     94.4161                 2.4792                 1.4236

                     58                     59                     60
                      A                      A                      A
 Frequencies --   1536.0828              1542.8464              1547.3078
 Red. masses --      1.2131                 1.0986                 1.5004
 Frc consts  --      1.6865                 1.5407                 2.1165
 IR Inten    --      7.4475                 5.4619                 8.9251

                     61                     62                     63
                      A                      A                      A
 Frequencies --   1551.8583              1556.6068              1660.7496
 Red. masses --      1.3155                 1.1459                 7.0619
 Frc consts  --      1.8665                 1.6359                11.4758
 IR Inten    --      5.7000                 2.7458                 7.3632

                     64                     65                     66
                      A                      A                      A
 Frequencies --   1683.7904              2987.5937              2995.6863
 Red. masses --      6.8385                 1.0692                 1.0715
 Frc consts  --     11.4232                 5.6230                 5.6656
 IR Inten    --     33.3084                84.2359                69.5959

                     67                     68                     69
                      A                      A                      A
 Frequencies --   3020.8732              3044.9499              3051.2445
 Red. masses --      1.0688                 1.0923                 1.0940
 Frc consts  --      5.7465                 5.9668                 6.0009
 IR Inten    --     45.3413                38.8355                58.8363

                     70                     71                     72
                      A                      A                      A
 Frequencies --   3052.9921              3070.9084              3096.5282
 Red. masses --      1.0361                 1.0590                 1.0957
 Frc consts  --      5.6901                 5.8841                 6.1899
 IR Inten    --     17.5580                39.2063                28.1095

                     73                     74                     75
                      A                      A                      A
 Frequencies --   3111.5762              3120.1909              3136.9478
 Red. masses --      1.1055                 1.1013                 1.1031
 Frc consts  --      6.3065                 6.3172                 6.3955
 IR Inten    --     20.6368                29.3056                34.7111

                     76                     77                     78
                      A                      A                      A
 Frequencies --   3162.3940              3191.8711              3756.5644
 Red. masses --      1.0904                 1.0904                 1.0660
 Frc consts  --      6.4249                 6.5454                 8.8631
 IR Inten    --     20.9101                 5.6504                42.8316

 - Thermochemistry -
 -------------------
 Temperature   298.150 Kelvin.  Pressure   1.00000 Atm.
 Atom     1 has atomic number  6 and mass  12.00000

 Molecular mass:   194.09429 amu.
 Principal axes and moments of inertia in atomic units:
                           1         2         3
     Eigenvalues --  1359.975654405.161255089.02982
           X            0.99996  -0.00095   0.00878
           Y            0.00085   0.99993   0.01172
           Z           -0.00879  -0.01172   0.99989
 This molecule is an asymmetric top.
 Rotational symmetry number  1.
 Warning -- assumption of classical behavior for rotation
           may cause significant error
 Rotational temperatures (Kelvin)      0.06369     0.01966     0.01702
 Rotational constants (GHZ):           1.32704     0.40969     0.35463
 Zero-point vibrational energy     617837.9 (Joules/Mol)
                                  147.66681 (Kcal/Mol)
 Warning -- explicit consideration of  20 degrees of freedom as
           vibrations may cause significant error
 Vibrational temperatures:     39.85    71.48    94.11   126.97   198.89
          (Kelvin)            234.21   254.41   352.70   394.43   449.78
                              473.29   481.12   514.45   563.36   630.85
                              654.22   674.24   807.12   841.85   881.14
                             1036.20  1053.24  1095.22  1169.00  1179.37
                             1193.18  1228.96  1263.49  1310.48  1346.98
                             1431.56  1475.25  1488.14  1539.62  1557.18
                             1579.70  1605.41  1656.28  1694.52  1712.28
                             1742.19  1746.36  1766.21  1794.17  1852.00
                             1890.88  1913.76  1938.89  1953.24  1972.80
                             2027.47  2046.10  2065.96  2077.92  2136.84
                             2184.75  2194.15  2210.08  2219.81  2226.23
                             2232.78  2239.61  2389.45  2422.60  4298.48
                             4310.12  4346.36  4381.00  4390.06  4392.57
                             4418.35  4455.21  4476.86  4489.26  4513.37
                             4549.98  4592.39  5404.86

 Zero-point correction=                           0.235322 (Hartree/Particle)
 Thermal correction to Energy=                    0.248572
 Thermal correction to Enthalpy=                  0.249516
 Thermal correction to Gibbs Free Energy=         0.194334
 Sum of electronic and zero-point Energies=           -653.052105
 Sum of electronic and thermal Energies=              -653.038855
 Sum of electronic and thermal Enthalpies=            -653.037910
 Sum of electronic and thermal Free Energies=         -653.093093

                     E (Thermal)             CV                S
                      KCal/Mol        Cal/Mol-Kelvin    Cal/Mol-Kelvin
 Total                  155.981             49.796            116.142
 Electronic               0.000              0.000              0.000
 Translational            0.889              2.981             41.695
 Rotational               0.889              2.981             31.789
 Vibrational            154.204             43.834             42.658
 Vibration     1          0.593              1.984              5.988
 Vibration     2          0.595              1.978              4.830
 Vibration     3          0.597              1.971              4.287
 Vibration     4          0.601              1.957              3.699
 Vibration     5          0.614              1.915              2.828
 Vibration     6          0.623              1.888              2.517
 Vibration     7          0.628              1.871              2.362
 Vibration     8          0.660              1.771              1.765
 Vibration     9          0.676              1.721              1.570
 Vibration    10          0.701              1.650              1.348
 Vibration    11          0.712              1.618              1.265
 Vibration    12          0.716              1.607              1.239
 Vibration    13          0.733              1.560              1.133
 Vibration    14          0.759              1.488              0.994
 Vibration    15          0.799              1.386              0.831
 Vibration    16          0.813              1.350              0.782
 Vibration    17          0.826              1.320              0.741
 Vibration    18          0.917              1.116              0.522
 Vibration    19          0.942              1.064              0.476
 Vibration    20          0.972              1.006              0.429

                           ! Non-Optimized Parameters !
 Normal termination of Gaussian 16 at Thu Dec 10 10:25:24 2020.

 ----------------------------------------------------------------------
 # B3LYP/6-311++G(d,p) empiricaldispersion=gd3bj scf=xqc pop=npa geom=c
 heck
 ----------------------------------------------------------------------

 ---------------------------------------
 CID_132546093_JID_4644_Energie_neutraal
 ---------------------------------------
 Structure from the checkpoint file:  "JID_4644.chk"
 Charge =  0 Multiplicity = 1

 SCF Done:  E(RB3LYP) =  -653.476249119     A.U. after   14 cycles
 Normal termination of Gaussian 16 at Thu Dec 10 10:28:04 2020.

 ----------------------------------------------------------------------
 # B3LYP/6-311++G(d,p) empiricaldispersion=gd3bj scf=xqc pop=npa geom=c
 heck
 ----------------------------------------------------------------------

 -------------------------------------
 CID_132546093_JID_4644_Energie_kation
 -------------------------------------
 Structure from the checkpoint file:  "JID_4644.chk"
 Charge =  1 Multiplicity = 2

 SCF Done:  E(UB3LYP) =  -653.179789615     A.U. after   25 cycles
 Normal termination of Gaussian 16 at Thu Dec 10 10:34:20 2020.
 Gaussian 16:  ES64L-G16RevA.03 25-Dec-2016

 ----------------------------------------------------------------------
 # B3LYP/6-311++G(d,p) empiricaldispersion=gd3bj scf=xqc pop=npa geom=c
 heck
 ----------------------------------------------------------------------

 ------------------------------------
 CID_132546093_JID_4644_Energie_anion
 ------------------------------------
 Structure from the checkpoint file:  "JID_4644.chk"
 Charge = -1 Multiplicity = 2

                         Standard orientation:
 ---------------------------------------------------------------------
 Center     Atomic      Atomic             Coordinates (Angstroms)
 Number     Number       Type             X           Y           Z
 ---------------------------------------------------------------------
      1          6           0        3.756326    0.070444    1.243299
      2          6           0        2.804857   -1.089538    0.959195
      3          8           0        2.640037   -1.380311   -0.425811
      4          6           0        2.050577   -0.332386   -1.190783
      5          6           0        0.651781    0.020081   -0.729665
      6          6           0        0.309348    1.328195   -0.345108
      7          6           0       -0.981354    1.640220    0.099941
      8          6           0       -1.926638    0.625105    0.162727
      9          6           0       -3.363037    0.656013    0.611048
     10          8           0       -3.875701   -0.648250    0.330954
     11          6           0       -2.814766   -1.549648   -0.006613
     12          6           0       -1.602536   -0.678828   -0.203808
     13          6           0       -0.320645   -0.982552   -0.643373
     14          8           0        1.288286    2.288241   -0.422821
     15          1           0        4.714819   -0.086351    0.736595
     16          1           0        3.943173    0.140504    2.321265
     17          1           0        3.339828    1.027762    0.914534
     18          1           0        3.199712   -2.016689    1.386530
     19          1           0        1.827122   -0.897015    1.425376
     20          1           0        2.683253    0.560307   -1.199082
     21          1           0        2.019279   -0.726848   -2.211836
     22          1           0       -1.226463    2.660764    0.390132
     23          1           0       -3.449227    0.878817    1.687468
     24          1           0       -3.968724    1.395810    0.070317
     25          1           0       -3.103641   -2.104276   -0.909133
     26          1           0       -2.669151   -2.283167    0.802919
     27          1           0       -0.041429   -1.997322   -0.915273
     28          1           0        0.926997    3.127627   -0.099551
 ---------------------------------------------------------------------

 SCF Done:  E(UB3LYP) =  -653.465554904     A.U. after   33 cycles
 SCF Done:  E(UB3LYP) =  -653.465554904     a.u. after    1 cycles

 The electronic state is 2-A.
 Alpha  occ. eigenvalues --  -19.04220 -19.03057 -19.02236 -10.13306 -10.12994
 Alpha  occ. eigenvalues --  -10.12568 -10.11409 -10.11376 -10.07955 -10.07504
 Alpha  occ. eigenvalues --  -10.07404 -10.07257 -10.06872 -10.05917  -0.95300
 Alpha  occ. eigenvalues --   -0.94712  -0.93178  -0.75902  -0.68313  -0.66545
 Alpha  occ. eigenvalues --   -0.65196  -0.62294  -0.58795  -0.54542  -0.50682
 Alpha  occ. eigenvalues --   -0.50327  -0.46722  -0.43342  -0.41900  -0.39218
 Alpha  occ. eigenvalues --   -0.39083  -0.38782  -0.36594  -0.34270  -0.34029
 Alpha  occ. eigenvalues --   -0.33066  -0.32206  -0.31602  -0.30390  -0.29718
 Alpha  occ. eigenvalues --   -0.29056  -0.28171  -0.26690  -0.25725  -0.25097
 Alpha  occ. eigenvalues --   -0.23578  -0.22606  -0.20806  -0.16937  -0.16220
 Alpha  occ. eigenvalues --   -0.14749  -0.11934   0.04676
 Alpha virt. eigenvalues --    0.06830   0.07072   0.07440   0.08589   0.09317
 Alpha virt. eigenvalues --    0.09438   0.09947   0.10360   0.10758   0.11040
 Alpha virt. eigenvalues --    0.11687   0.12183   0.12746   0.13428   0.14523

  Beta  occ. eigenvalues --  -19.04154 -19.03055 -19.02233 -10.13314 -10.12989
  Beta  occ. eigenvalues --  -10.12556 -10.11400 -10.11369 -10.07931 -10.07469
  Beta  occ. eigenvalues --  -10.07403 -10.07225 -10.06798 -10.05891  -0.95176
  Beta  occ. eigenvalues --   -0.94699  -0.93168  -0.75836  -0.68244  -0.66500
  Beta  occ. eigenvalues --   -0.65159  -0.62227  -0.58747  -0.54450  -0.50615
  Beta  occ. eigenvalues --   -0.50267  -0.46667  -0.43239  -0.41858  -0.39175
  Beta  occ. eigenvalues --   -0.39044  -0.38755  -0.36567  -0.34199  -0.33983
  Beta  occ. eigenvalues --   -0.33014  -0.32179  -0.31561  -0.30324  -0.29669
  Beta  occ. eigenvalues --   -0.29011  -0.28139  -0.26645  -0.25678  -0.25064
  Beta  occ. eigenvalues --   -0.23490  -0.22558  -0.20784  -0.16886  -0.16199
  Beta  occ. eigenvalues --   -0.14535  -0.11830
  Beta virt. eigenvalues --    0.06872   0.07256   0.07570   0.08343   0.09035
  Beta virt. eigenvalues --    0.09524   0.09828   0.10033   0.10640   0.10932
  Beta virt. eigenvalues --    0.11115   0.11807   0.12604   0.12927   0.13479

 Mulliken charges and spin densities:
               1          2
     1  C    0.277692  -0.734751
     2  C   -0.386291   0.155564
     3  O   -0.090368   0.006561
     4  C    0.114329  -0.796885
     5  C    1.899860  -0.942085
     6  C    1.244868  -1.653325
     7  C   -1.429725   0.997331
     8  C    1.018207  -0.841628
     9  C    1.336165  -1.555596
    10  O   -0.175202   0.019938
    11  C   -0.278560  -0.123976
    12  C   -0.311178   0.602483
    13  C   -2.049893   1.537722
    14  O   -0.296724   0.071639
    15  H   -0.039763   0.174109
    16  H   -0.181213   0.304062
    17  H    0.002920   0.169755
    18  H    0.019507   0.132306
    19  H    0.173722  -0.058601
    20  H    0.115424   0.091741
    21  H   -0.026282   0.189033
    22  H   -1.741024   1.917854
    23  H    0.112931   0.054433
    24  H   -0.066433   0.246591
    25  H    0.079241   0.078687
    26  H    0.150439   0.009235
    27  H    0.050426   0.119628
    28  H   -0.523075   0.828176
 Sum of Mulliken charges =  -1.00000   1.00000

 Dipole moment (field-independent basis, Debye):
    X=             -0.8694    Y=             -8.4846    Z=             -0.2417  Tot=              8.5324
 Quadrupole moment (field-independent basis, Debye-Ang):
   XX=           -141.4149   YY=           -144.2520   ZZ=           -107.8134
   XY=              3.0881   XZ=             -3.2592   YZ=             -3.4348

 Summary of Natural Population Analysis:

                                       Natural Population
                Natural  -----------------------------------------------
    Atom  No    Charge         Core      Valence    Rydberg      Total
 -----------------------------------------------------------------------
      C    1   -0.30656      0.99966     2.30188    0.00502     3.30656
      C    2   -0.01161      0.99959     2.00071    0.01131     3.01161
      O    3   -0.30279      0.99989     3.29353    0.00937     4.30279
      C    4   -0.01861      0.99953     2.00665    0.01242     3.01861
      C    5   -0.05694      0.99947     2.04633    0.01114     3.05694
      C    6    0.16709      0.99935     1.81968    0.01387     2.83291
      C    7   -0.12284      0.99946     2.11146    0.01192     3.12284
      C    8   -0.01662      0.99947     2.00771    0.00945     3.01662
      C    9   -0.01003      0.99955     1.99759    0.01288     3.01003
      O   10   -0.30221      0.99990     3.29452    0.00779     4.30221
      C   11   -0.00473      0.99956     1.99512    0.01005     3.00473
      C   12   -0.04991      0.99946     2.04099    0.00947     3.04991
      C   13   -0.07825      0.99948     2.07065    0.00812     3.07825
      O   14   -0.34591      0.99988     3.33860    0.00744     4.34591
      H   15    0.09622      0.00000     0.40263    0.00115     0.40378
      H   16    0.10002      0.00000     0.39886    0.00112     0.39998
      H   17    0.10832      0.00000     0.39013    0.00155     0.39168
      H   18    0.08378      0.00000     0.41477    0.00145     0.41622
      H   19    0.08207      0.00000     0.41633    0.00160     0.41793
      H   20    0.09460      0.00000     0.40345    0.00194     0.40540
      H   21    0.09298      0.00000     0.40570    0.00132     0.40702
      H   22    0.10959      0.00000     0.38326    0.00715     0.39041
      H   23    0.08449      0.00000     0.41411    0.00140     0.41551
      H   24    0.09271      0.00000     0.40549    0.00180     0.40729
      H   25    0.08640      0.00000     0.41181    0.00179     0.41360
      H   26    0.08020      0.00000     0.41813    0.00167     0.41980
      H   27    0.10131      0.00000     0.39724    0.00144     0.39869
      H   28    0.24722      0.00000     0.22482    0.02796     0.25278
 =======================================================================
   * Total *    0.00000     13.99425    37.81217    0.19359    52.00000

 Normal termination of Gaussian 16 at Thu Dec 10 10:43:01 2020.
