 Gaussian 16, Revision A.03,

 -----------------------------------------------------------
 # opt freq B3LYP/6-31G(d) empiricaldispersion=gd3bj scf=xqc
 -----------------------------------------------------------

 ------------------------------
 CID_22244512_JID_3346_neutraal
 ------------------------------
 Symbolic Z-matrix:
 Charge =  0 Multiplicity = 1

 SCF Done:  E(RB3LYP) =  -618.822629736     A.U. after   13 cycles
 SCF Done:  E(RB3LYP) =  -618.825492675     A.U. after   11 cycles
 SCF Done:  E(RB3LYP) =  -618.824957272     A.U. after   11 cycles
 SCF Done:  E(RB3LYP) =  -618.826931608     A.U. after   10 cycles
 SCF Done:  E(RB3LYP) =  -618.827406173     A.U. after   11 cycles
 SCF Done:  E(RB3LYP) =  -618.827529943     A.U. after   11 cycles
 SCF Done:  E(RB3LYP) =  -618.827548903     A.U. after   10 cycles
 SCF Done:  E(RB3LYP) =  -618.827574695     A.U. after    9 cycles
 SCF Done:  E(RB3LYP) =  -618.827579175     A.U. after    9 cycles
 SCF Done:  E(RB3LYP) =  -618.827580975     A.U. after    9 cycles
 SCF Done:  E(RB3LYP) =  -618.827581481     A.U. after    7 cycles
 SCF Done:  E(RB3LYP) =  -618.827581571     A.U. after    6 cycles
 Optimization completed.
    -- Stationary point found.
 Normal termination of Gaussian 16 at Wed Dec  9 23:02:53 2020.

 --------------------------------------------------------------------
 #N Geom=AllCheck Guess=TCheck SCRF=Check GenChk RB3LYP/6-31G(d) Freq
 --------------------------------------------------------------------

 Structure from the checkpoint file:  "JID_3346.chk"
 ------------------------------
 CID_22244512_JID_3346_neutraal
 ------------------------------
 Charge =  0 Multiplicity = 1

 SCF Done:  E(RB3LYP) =  -618.827581571     A.U. after    1 cycles

  Exact polarizability: 127.149  -2.218 115.628  -1.875  -0.876  96.608
 Approx polarizability: 154.212  -1.205 157.175   1.294   2.395 149.887

                      1                      2                      3
                      A                      A                      A
 Frequencies --     38.1479                63.1269               107.6499
 Red. masses --      3.8022                 3.0537                 3.3085
 Frc consts  --      0.0033                 0.0072                 0.0226
 IR Inten    --      1.5667                 0.3438                 0.1380

                      4                      5                      6
                      A                      A                      A
 Frequencies --    114.7041               156.8795               203.7600
 Red. masses --      2.9515                 3.0831                 1.0262
 Frc consts  --      0.0229                 0.0447                 0.0251
 IR Inten    --      1.0807                 1.1957                 0.0108

                      7                      8                      9
                      A                      A                      A
 Frequencies --    214.8457               232.8013               246.6861
 Red. masses --      1.1771                 1.8303                 1.2844
 Frc consts  --      0.0320                 0.0584                 0.0461
 IR Inten    --      0.1322                 1.6102                 0.5289

                     10                     11                     12
                      A                      A                      A
 Frequencies --    249.3692               288.7701               308.7663
 Red. masses --      1.2176                 3.1897                 2.4752
 Frc consts  --      0.0446                 0.1567                 0.1390
 IR Inten    --      0.1532                 1.0090                 1.1178

                     13                     14                     15
                      A                      A                      A
 Frequencies --    315.2454               345.8610               373.6718
 Red. masses --      2.9409                 2.0645                 2.2435
 Frc consts  --      0.1722                 0.1455                 0.1846
 IR Inten    --      1.5029                 0.3088                 1.6859

                     16                     17                     18
                      A                      A                      A
 Frequencies --    388.7931               411.9684               464.9960
 Red. masses --      3.3121                 3.1484                 3.1165
 Frc consts  --      0.2950                 0.3148                 0.3970
 IR Inten    --      2.9971                 5.1871                 8.3237

                     19                     20                     21
                      A                      A                      A
 Frequencies --    499.7070               504.7839               510.9593
 Red. masses --      2.8625                 3.3397                 3.2060
 Frc consts  --      0.4211                 0.5014                 0.4932
 IR Inten    --      3.4831                 4.7300                 2.8153

                     22                     23                     24
                      A                      A                      A
 Frequencies --    535.3850               553.0225               583.1758
 Red. masses --      3.2960                 3.1309                 1.1000
 Frc consts  --      0.5566                 0.5642                 0.2204
 IR Inten    --      1.3161                 4.0051                80.4733

                     25                     26                     27
                      A                      A                      A
 Frequencies --    707.3088               777.2231               816.1134
 Red. masses --      3.0309                 3.6380                 1.7137
 Frc consts  --      0.8934                 1.2948                 0.6725
 IR Inten    --      5.1722                 3.3570                 2.3392

                     28                     29                     30
                      A                      A                      A
 Frequencies --    838.5848               881.0759               912.1447
 Red. masses --      2.1337                 2.9230                 2.1915
 Frc consts  --      0.8841                 1.3369                 1.0743
 IR Inten    --      8.1235                47.4601                 3.7490

                     31                     32                     33
                      A                      A                      A
 Frequencies --    937.9463               947.0787               966.5153
 Red. masses --      1.4789                 1.9104                 1.9041
 Frc consts  --      0.7665                 1.0096                 1.0480
 IR Inten    --      1.2511                 7.1117                 6.6012

                     34                     35                     36
                      A                      A                      A
 Frequencies --    974.9025              1000.3160              1017.3652
 Red. masses --      1.8545                 1.6267                 2.1194
 Frc consts  --      1.0385                 0.9590                 1.2925
 IR Inten    --      6.6799                 8.6664                78.9258

                     37                     38                     39
                      A                      A                      A
 Frequencies --   1024.9036              1067.3047              1076.3966
 Red. masses --      1.4768                 2.7833                 2.7578
 Frc consts  --      0.9140                 1.8681                 1.8826
 IR Inten    --     13.0099                 8.6790                19.2714

                     40                     41                     42
                      A                      A                      A
 Frequencies --   1090.7503              1115.1373              1129.1399
 Red. masses --      2.4236                 2.4108                 3.3414
 Frc consts  --      1.6989                 1.7663                 2.5100
 IR Inten    --     34.9121                 3.3024                80.3175

                     43                     44                     45
                      A                      A                      A
 Frequencies --   1164.6629              1179.8115              1185.4278
 Red. masses --      2.2050                 2.0698                 2.0797
 Frc consts  --      1.7622                 1.6975                 1.7219
 IR Inten    --     24.9153                12.1736                43.5438

                     46                     47                     48
                      A                      A                      A
 Frequencies --   1214.1937              1251.4924              1264.0288
 Red. masses --      2.2430                 1.4181                 2.7226
 Frc consts  --      1.9483                 1.3086                 2.5630
 IR Inten    --     61.6012                 8.4965               157.6628

                     49                     50                     51
                      A                      A                      A
 Frequencies --   1266.1997              1306.0735              1316.2463
 Red. masses --      2.4473                 1.3703                 1.3241
 Frc consts  --      2.3117                 1.3772                 1.3516
 IR Inten    --     41.7583                 9.3629                19.5420

                     52                     53                     54
                      A                      A                      A
 Frequencies --   1335.3062              1349.7420              1360.7607
 Red. masses --      1.2834                 1.2012                 1.3124
 Frc consts  --      1.3483                 1.2893                 1.4318
 IR Inten    --      7.2541                46.4481                 8.8593

                     55                     56                     57
                      A                      A                      A
 Frequencies --   1392.2180              1402.4086              1414.2602
 Red. masses --      1.2234                 1.3203                 1.4307
 Frc consts  --      1.3971                 1.5299                 1.6860
 IR Inten    --      6.1475                10.3478                 4.6976

                     58                     59                     60
                      A                      A                      A
 Frequencies --   1423.4703              1427.7722              1433.6155
 Red. masses --      1.2919                 1.2550                 1.3543
 Frc consts  --      1.5423                 1.5073                 1.6399
 IR Inten    --     14.9280                 6.8426                23.2061

                     61                     62                     63
                      A                      A                      A
 Frequencies --   1443.4573              1444.1739              1488.8113
 Red. masses --      1.2255                 1.2520                 1.4313
 Frc consts  --      1.5044                 1.5385                 1.8692
 IR Inten    --     20.6037                16.6631                73.1096

                     64                     65                     66
                      A                      A                      A
 Frequencies --   1505.5853              1507.9132              1515.0857
 Red. masses --      1.0476                 1.0543                 1.0835
 Frc consts  --      1.3991                 1.4124                 1.4654
 IR Inten    --      0.4242                 1.0593                 1.3427

                     67                     68                     69
                      A                      A                      A
 Frequencies --   1518.4014              1525.9779              1528.1922
 Red. masses --      1.0589                 1.0677                 1.0784
 Frc consts  --      1.4384                 1.4648                 1.4839
 IR Inten    --      5.1894                 1.6823                 8.7348

                     70                     71                     72
                      A                      A                      A
 Frequencies --   1530.6658              1534.2874              1541.6317
 Red. masses --      1.0536                 1.0474                 1.0803
 Frc consts  --      1.4544                 1.4527                 1.5127
 IR Inten    --      2.7267                 4.7959                 2.9650

                     73                     74                     75
                      A                      A                      A
 Frequencies --   1547.3102              2924.0236              3022.8667
 Red. masses --      1.0500                 1.0819                 1.0816
 Frc consts  --      1.4812                 5.4502                 5.8230
 IR Inten    --      4.8247                59.6654                 6.5711

                     76                     77                     78
                      A                      A                      A
 Frequencies --   3038.6284              3043.3706              3052.4953
 Red. masses --      1.0814                 1.0681                 1.0461
 Frc consts  --      5.8830                 5.8287                 5.7428
 IR Inten    --     23.3540                26.2082                30.1810

                     79                     80                     81
                      A                      A                      A
 Frequencies --   3055.8428              3057.8510              3069.7127
 Red. masses --      1.0611                 1.0384                 1.0352
 Frc consts  --      5.8382                 5.7204                 5.7475
 IR Inten    --     26.7672                25.1845                15.7665

                     82                     83                     84
                      A                      A                      A
 Frequencies --   3074.5327              3102.3761              3120.4363
 Red. masses --      1.0355                 1.1010                 1.0947
 Frc consts  --      5.7673                 6.2437                 6.2802
 IR Inten    --      5.5025                29.9186                24.5426

                     85                     86                     87
                      A                      A                      A
 Frequencies --   3127.9172              3129.8762              3139.1406
 Red. masses --      1.1005                 1.0997                 1.1029
 Frc consts  --      6.3440                 6.3470                 6.4035
 IR Inten    --     31.1668                40.1790                34.4227

                     88                     89                     90
                      A                      A                      A
 Frequencies --   3142.3353              3147.6783              3148.0421
 Red. masses --      1.1031                 1.1026                 1.1003
 Frc consts  --      6.4178                 6.4367                 6.4243
 IR Inten    --      5.1131                25.4628                14.4497

                     91                     92                     93
                      A                      A                      A
 Frequencies --   3150.0358              3153.5445              3668.7855
 Red. masses --      1.1032                 1.1036                 1.0646
 Frc consts  --      6.4498                 6.4661                 8.4428
 IR Inten    --     23.3589                30.8321               258.0562

 - Thermochemistry -
 -------------------
 Temperature   298.150 Kelvin.  Pressure   1.00000 Atm.
 Atom     1 has atomic number  6 and mass  12.00000

 Molecular mass:   188.14124 amu.
 Principal axes and moments of inertia in atomic units:
                           1         2         3
     Eigenvalues --  1426.855903268.939344113.20687
           X            0.99960  -0.02675  -0.00910
           Y            0.02662   0.99954  -0.01483
           Z            0.00949   0.01458   0.99985
 This molecule is an asymmetric top.
 Rotational symmetry number  1.
 Warning -- assumption of classical behavior for rotation
           may cause significant error
 Rotational temperatures (Kelvin)      0.06070     0.02650     0.02106
 Rotational constants (GHZ):           1.26484     0.55209     0.43877
 Zero-point vibrational energy     781651.7 (Joules/Mol)
                                  186.81924 (Kcal/Mol)
 Warning -- explicit consideration of  24 degrees of freedom as
           vibrations may cause significant error
 Vibrational temperatures:     54.89    90.83   154.88   165.03   225.71
          (Kelvin)            293.17   309.12   334.95   354.93   358.79
                              415.48   444.25   453.57   497.62   537.63
                              559.39   592.73   669.03   718.97   726.27
                              735.16   770.30   795.68   839.06  1017.66
                             1118.25  1174.21  1206.54  1267.67  1312.37
                             1349.50  1362.64  1390.60  1402.67  1439.23
                             1463.76  1474.61  1535.61  1548.69  1569.35
                             1604.43  1624.58  1675.69  1697.49  1705.57
                             1746.95  1800.62  1818.66  1821.78  1879.15
                             1893.78  1921.21  1941.98  1957.83  2003.09
                             2017.75  2034.80  2048.06  2054.25  2062.65
                             2076.81  2077.84  2142.07  2166.20  2169.55
                             2179.87  2184.64  2195.54  2198.73  2202.29
                             2207.50  2218.06  2226.23  4207.02  4349.23
                             4371.91  4378.73  4391.86  4396.68  4399.57
                             4416.63  4423.57  4463.63  4489.61  4500.38
                             4503.19  4516.52  4521.12  4528.81  4529.33
                             4532.20  4537.25  5278.56

 Zero-point correction=                           0.297715 (Hartree/Particle)
 Thermal correction to Energy=                    0.312006
 Thermal correction to Enthalpy=                  0.312950
 Thermal correction to Gibbs Free Energy=         0.257519
 Sum of electronic and zero-point Energies=           -618.529866
 Sum of electronic and thermal Energies=              -618.515575
 Sum of electronic and thermal Enthalpies=            -618.514631
 Sum of electronic and thermal Free Energies=         -618.570062

                     E (Thermal)             CV                S
                      KCal/Mol        Cal/Mol-Kelvin    Cal/Mol-Kelvin
 Total                  195.787             55.650            116.665
 Electronic               0.000              0.000              0.000
 Translational            0.889              2.981             41.602
 Rotational               0.889              2.981             31.329
 Vibrational            194.009             49.688             43.734
 Vibration     1          0.594              1.982              5.353
 Vibration     2          0.597              1.972              4.357
 Vibration     3          0.606              1.943              3.311
 Vibration     4          0.608              1.937              3.188
 Vibration     5          0.621              1.895              2.587
 Vibration     6          0.639              1.835              2.099
 Vibration     7          0.645              1.818              2.002
 Vibration     8          0.654              1.791              1.857
 Vibration     9          0.661              1.768              1.754
 Vibration    10          0.662              1.764              1.735
 Vibration    11          0.685              1.695              1.481
 Vibration    12          0.698              1.657              1.369
 Vibration    13          0.703              1.645              1.335
 Vibration    14          0.724              1.584              1.185
 Vibration    15          0.745              1.526              1.065
 Vibration    16          0.757              1.494              1.005
 Vibration    17          0.776              1.444              0.920
 Vibration    18          0.822              1.328              0.752
 Vibration    19          0.855              1.251              0.659
 Vibration    20          0.860              1.239              0.646
 Vibration    21          0.866              1.226              0.631
 Vibration    22          0.890              1.172              0.575
 Vibration    23          0.908              1.133              0.538
 Vibration    24          0.940              1.068              0.480

 Optimization completed.
    -- Stationary point found.
 Normal termination of Gaussian 16 at Wed Dec  9 23:13:35 2020.

 ----------------------------------------------------------------------
 # B3LYP/6-311++G(d,p) empiricaldispersion=gd3bj scf=xqc pop=npa geom=c
 heck
 ----------------------------------------------------------------------

 --------------------------------------
 CID_22244512_JID_3346_Energie_neutraal
 --------------------------------------
 Structure from the checkpoint file:  "JID_3346.chk"
 Charge =  0 Multiplicity = 1

 SCF Done:  E(RB3LYP) =  -619.015172196     A.U. after   14 cycles
 Normal termination of Gaussian 16 at Wed Dec  9 23:18:31 2020.

 ----------------------------------------------------------------------
 # B3LYP/6-311++G(d,p) empiricaldispersion=gd3bj scf=xqc pop=npa geom=c
 heck
 ----------------------------------------------------------------------

 ------------------------------------
 CID_22244512_JID_3346_Energie_kation
 ------------------------------------
 Structure from the checkpoint file:  "JID_3346.chk"
 Charge =  1 Multiplicity = 2

 SCF Done:  E(UB3LYP) =  -618.687958664     A.U. after   27 cycles
 Normal termination of Gaussian 16 at Wed Dec  9 23:31:56 2020.
 Gaussian 16:  ES64L-G16RevA.03 25-Dec-2016

 ----------------------------------------------------------------------
 # B3LYP/6-311++G(d,p) empiricaldispersion=gd3bj scf=xqc pop=npa geom=c
 heck
 ----------------------------------------------------------------------

 -----------------------------------
 CID_22244512_JID_3346_Energie_anion
 -----------------------------------
 Structure from the checkpoint file:  "JID_3346.chk"
 Charge = -1 Multiplicity = 2

                         Standard orientation:
 ---------------------------------------------------------------------
 Center     Atomic      Atomic             Coordinates (Angstroms)
 Number     Number       Type             X           Y           Z
 ---------------------------------------------------------------------
      1          6           0       -2.355358    1.813678    0.370643
      2          6           0       -1.600680    0.619105   -0.231403
      3          6           0       -0.125484    0.691925    0.188261
      4          6           0        0.606307    1.981993   -0.226213
      5          6           0        2.098278    1.658092   -0.411063
      6          8           0        2.485840    0.610129    0.477036
      7          6           0        1.888363   -0.637359    0.145502
      8          8           0        0.579206   -0.418922   -0.403528
      9          6           0        1.810701   -1.440124    1.439825
     10          6           0        2.676334   -1.363389   -0.940973
     11          6           0       -2.236830   -0.736669    0.169553
     12          6           0       -3.750132   -0.782478   -0.014323
     13          8           0       -1.719658   -1.806868   -0.609725
     14          1           0       -2.389212    1.746877    1.465758
     15          1           0       -3.384409    1.852508    0.006143
     16          1           0       -1.880464    2.764076    0.109901
     17          1           0       -1.644595    0.680022   -1.328159
     18          1           0       -0.077927    0.591402    1.281455
     19          1           0        0.468515    2.747175    0.544476
     20          1           0        0.193798    2.376264   -1.163233
     21          1           0        2.735980    2.509251   -0.162276
     22          1           0        2.303851    1.375613   -1.451384
     23          1           0        1.205607   -0.914864    2.183466
     24          1           0        1.364770   -2.419956    1.246657
     25          1           0        2.813623   -1.578736    1.853479
     26          1           0        2.186115   -2.306841   -1.199205
     27          1           0        2.737673   -0.752716   -1.845687
     28          1           0        3.688297   -1.574383   -0.584695
     29          1           0       -2.011548   -0.900922    1.241515
     30          1           0       -4.022457   -0.487811   -1.034435
     31          1           0       -4.090569   -1.810339    0.141592
     32          1           0       -4.272440   -0.133737    0.694567
     33          1           0       -0.756700   -1.666244   -0.649048
 ---------------------------------------------------------------------

 SCF Done:  E(UB3LYP) =  -618.999167383     A.U. after   29 cycles

 The electronic state is 2-A.
 Alpha  occ. eigenvalues --  -19.04069 -19.03223 -19.00508 -10.18653 -10.12964
 Alpha  occ. eigenvalues --  -10.12038 -10.11908 -10.07980 -10.06949 -10.06832
 Alpha  occ. eigenvalues --  -10.06777 -10.06348 -10.06182  -0.98728  -0.92009
 Alpha  occ. eigenvalues --   -0.90575  -0.72992  -0.69118  -0.64810  -0.62997
 Alpha  occ. eigenvalues --   -0.61110  -0.58056  -0.54835  -0.51502  -0.47563
 Alpha  occ. eigenvalues --   -0.44683  -0.43372  -0.42017  -0.39711  -0.39281
 Alpha  occ. eigenvalues --   -0.36222  -0.34941  -0.33341  -0.32272  -0.32079
 Alpha  occ. eigenvalues --   -0.31061  -0.30111  -0.29841  -0.29301  -0.28750
 Alpha  occ. eigenvalues --   -0.28080  -0.27745  -0.27365  -0.27289  -0.26474
 Alpha  occ. eigenvalues --   -0.25132  -0.24114  -0.23206  -0.19920  -0.18903
 Alpha  occ. eigenvalues --   -0.16565  -0.16195   0.04560
 Alpha virt. eigenvalues --    0.06531   0.06985   0.07589   0.08829   0.09029
 Alpha virt. eigenvalues --    0.09167   0.09826   0.10694   0.10853   0.11602
 Alpha virt. eigenvalues --    0.11717   0.12445   0.13054   0.13451   0.13611

  Beta  occ. eigenvalues --  -19.04064 -19.03218 -19.00504 -10.18652 -10.12955
  Beta  occ. eigenvalues --  -10.12030 -10.11881 -10.07972 -10.06922 -10.06803
  Beta  occ. eigenvalues --  -10.06752 -10.06315 -10.06169  -0.98719  -0.92000
  Beta  occ. eigenvalues --   -0.90566  -0.72967  -0.69093  -0.64773  -0.62965
  Beta  occ. eigenvalues --   -0.61067  -0.58004  -0.54784  -0.51461  -0.47521
  Beta  occ. eigenvalues --   -0.44640  -0.43330  -0.41992  -0.39677  -0.39253
  Beta  occ. eigenvalues --   -0.36181  -0.34909  -0.33310  -0.32237  -0.32046
  Beta  occ. eigenvalues --   -0.31028  -0.30084  -0.29813  -0.29267  -0.28720
  Beta  occ. eigenvalues --   -0.28053  -0.27712  -0.27335  -0.27259  -0.26439
  Beta  occ. eigenvalues --   -0.25106  -0.24076  -0.23184  -0.19896  -0.18880
  Beta  occ. eigenvalues --   -0.16553  -0.16172
  Beta virt. eigenvalues --    0.06725   0.07276   0.07806   0.08256   0.09370
  Beta virt. eigenvalues --    0.09506   0.09658   0.10394   0.10994   0.11317
  Beta virt. eigenvalues --    0.11969   0.12155   0.12755   0.13283   0.13841

 Mulliken charges and spin densities:
               1          2
     1  C    0.915631  -1.707427
     2  C   -0.110291   0.628128
     3  C   -0.005290  -0.050409
     4  C   -0.369071  -0.083142
     5  C    1.469425  -1.795931
     6  O   -0.008759   0.031376
     7  C   -1.727549   0.990430
     8  O    0.004198   0.001539
     9  C    0.951803  -1.243692
    10  C    0.264390  -0.470915
    11  C   -0.532458   0.171220
    12  C    0.104584  -0.644929
    13  O   -0.247535   0.011979
    14  H   -0.363349   0.536876
    15  H   -0.161683   0.323963
    16  H   -0.508100   0.668048
    17  H    0.180915   0.050387
    18  H    0.501484  -0.298747
    19  H   -0.095041   0.266149
    20  H   -0.378272   0.541373
    21  H   -0.602154   0.801449
    22  H    0.137697  -0.010005
    23  H   -0.476646   0.634612
    24  H    0.195204  -0.044229
    25  H   -0.182240   0.353715
    26  H   -0.063001   0.209290
    27  H   -0.177199   0.317954
    28  H   -0.130069   0.301941
    29  H   -0.006112   0.170022
    30  H    0.013376   0.136258
    31  H    0.065169   0.076853
    32  H   -0.019207   0.168816
    33  H    0.360149  -0.042954
 Sum of Mulliken charges =  -1.00000   1.00000

 Dipole moment (field-independent basis, Debye):
    X=             -0.6889    Y=             -3.7922    Z=             -1.0111  Tot=              3.9847
 Quadrupole moment (field-independent basis, Debye-Ang):
   XX=           -146.0790   YY=           -138.1547   ZZ=           -118.5595
   XY=              1.0707   XZ=              0.5886   YZ=             -2.4101

 Summary of Natural Population Analysis:

                                       Natural Population
                Natural  -----------------------------------------------
    Atom  No    Charge         Core      Valence    Rydberg      Total
 -----------------------------------------------------------------------
      C    1   -0.28791      0.99965     2.28200    0.00625     3.28791
      C    2   -0.12523      0.99956     2.11427    0.01140     3.12523
      C    3    0.06844      0.99950     1.91695    0.01510     2.93156
      C    4   -0.21161      0.99961     2.20326    0.00874     3.21161
      C    5   -0.00872      0.99956     1.99626    0.01289     3.00872
      O    6   -0.31162      0.99987     3.30216    0.00960     4.31162
      C    7    0.29952      0.99956     1.68102    0.01989     2.70048
      O    8   -0.33204      0.99986     3.32213    0.01006     4.33204
      C    9   -0.30159      0.99958     2.29515    0.00686     3.30159
      C   10   -0.30119      0.99958     2.29499    0.00663     3.30119
      C   11    0.06494      0.99956     1.92038    0.01511     2.93506
      C   12   -0.28993      0.99965     2.28524    0.00504     3.28993
      O   13   -0.38522      0.99989     3.37906    0.00627     4.38522
      H   14    0.09990      0.00000     0.39866    0.00144     0.40010
      H   15    0.10290      0.00000     0.39601    0.00109     0.39710
      H   16    0.10550      0.00000     0.39310    0.00140     0.39450
      H   17    0.09940      0.00000     0.39873    0.00187     0.40060
      H   18    0.08596      0.00000     0.41138    0.00266     0.41404
      H   19    0.10489      0.00000     0.39331    0.00180     0.39511
      H   20    0.10151      0.00000     0.39701    0.00148     0.39849
      H   21    0.09623      0.00000     0.40204    0.00172     0.40377
      H   22    0.08159      0.00000     0.41680    0.00162     0.41841
      H   23    0.10615      0.00000     0.39275    0.00111     0.39385
      H   24    0.10210      0.00000     0.39696    0.00095     0.39790
      H   25    0.10676      0.00000     0.39219    0.00105     0.39324
      H   26    0.10320      0.00000     0.39588    0.00093     0.39680
      H   27    0.10562      0.00000     0.39333    0.00105     0.39438
      H   28    0.10467      0.00000     0.39428    0.00105     0.39533
      H   29    0.07177      0.00000     0.42628    0.00194     0.42823
      H   30    0.09799      0.00000     0.40104    0.00097     0.40201
      H   31    0.10309      0.00000     0.39597    0.00094     0.39691
      H   32    0.09976      0.00000     0.39936    0.00089     0.40024
      H   33    0.24317      0.00000     0.25366    0.00317     0.25683
 =======================================================================
   * Total *   -0.00000     12.99542    38.84160    0.16298    52.00000

 Normal termination of Gaussian 16 at Wed Dec  9 23:46:12 2020.
