 Gaussian 16, Revision A.03,

 -----------------------------------------------------------
 # opt freq B3LYP/6-31G(d) empiricaldispersion=gd3bj scf=xqc
 -----------------------------------------------------------

 -----------------------------
 CID_88904649_JID_432_neutraal
 -----------------------------
 Symbolic Z-matrix:
 Charge =  0 Multiplicity = 1

 SCF Done:  E(RB3LYP) =  -482.184286469     A.U. after   13 cycles
 SCF Done:  E(RB3LYP) =  -482.187649755     A.U. after   10 cycles
 SCF Done:  E(RB3LYP) =  -482.187893556     A.U. after   10 cycles
 SCF Done:  E(RB3LYP) =  -482.187969144     A.U. after   10 cycles
 SCF Done:  E(RB3LYP) =  -482.188035386     A.U. after    9 cycles
 SCF Done:  E(RB3LYP) =  -482.188052345     A.U. after    9 cycles
 SCF Done:  E(RB3LYP) =  -482.188057667     A.U. after    9 cycles
 SCF Done:  E(RB3LYP) =  -482.188058661     A.U. after    7 cycles
 SCF Done:  E(RB3LYP) =  -482.188058859     A.U. after    7 cycles
 SCF Done:  E(RB3LYP) =  -482.188058909     A.U. after    7 cycles
 SCF Done:  E(RB3LYP) =  -482.188058966     A.U. after    7 cycles
 SCF Done:  E(RB3LYP) =  -482.188059001     A.U. after    7 cycles
 SCF Done:  E(RB3LYP) =  -482.188059011     A.U. after    7 cycles
 SCF Done:  E(RB3LYP) =  -482.188059017     A.U. after    6 cycles
 Optimization completed.
    -- Stationary point found.
 Normal termination of Gaussian 16 at Tue Dec  8 10:53:52 2020.

 --------------------------------------------------------------------
 #N Geom=AllCheck Guess=TCheck SCRF=Check GenChk RB3LYP/6-31G(d) Freq
 --------------------------------------------------------------------

 Structure from the checkpoint file:  "JID_432.chk"
 -----------------------------
 CID_88904649_JID_432_neutraal
 -----------------------------
 Charge =  0 Multiplicity = 1

 SCF Done:  E(RB3LYP) =  -482.188059017     A.U. after    1 cycles

  Exact polarizability:  99.823   2.068  85.949   2.835  -0.273  79.191
 Approx polarizability: 119.424   2.666 115.441   1.284  -1.156 115.889

                      1                      2                      3
                      A                      A                      A
 Frequencies --     16.6157                79.8642                90.1759
 Red. masses --      3.0294                 2.6559                 2.4032
 Frc consts  --      0.0005                 0.0100                 0.0115
 IR Inten    --      0.6050                 1.6698                 0.4975

                      4                      5                      6
                      A                      A                      A
 Frequencies --    108.4235               124.1056               151.4818
 Red. masses --      2.6647                 1.7774                 1.3392
 Frc consts  --      0.0185                 0.0161                 0.0181
 IR Inten    --      4.6475                 2.7511                 1.3568

                      7                      8                      9
                      A                      A                      A
 Frequencies --    182.0551               210.9233               231.2681
 Red. masses --      1.2933                 1.9702                 1.3976
 Frc consts  --      0.0253                 0.0516                 0.0440
 IR Inten    --      1.3042                16.6321                11.4608

                     10                     11                     12
                      A                      A                      A
 Frequencies --    246.5642               274.7377               283.9003
 Red. masses --      2.9461                 3.0869                 1.0646
 Frc consts  --      0.1055                 0.1373                 0.0506
 IR Inten    --      7.2481                15.2860                22.2950

                     13                     14                     15
                      A                      A                      A
 Frequencies --    303.7754               358.9325               393.7738
 Red. masses --      3.1661                 3.0831                 2.3958
 Frc consts  --      0.1721                 0.2340                 0.2189
 IR Inten    --      6.6167                 2.3307                 3.0406

                     16                     17                     18
                      A                      A                      A
 Frequencies --    420.6165               528.4520               583.2180
 Red. masses --      2.2249                 3.0720                 3.1098
 Frc consts  --      0.2319                 0.5054                 0.6232
 IR Inten    --      0.9528                10.4111                 4.5839

                     19                     20                     21
                      A                      A                      A
 Frequencies --    666.3685               799.9420               850.7673
 Red. masses --      4.0306                 2.3611                 2.1610
 Frc consts  --      1.0545                 0.8902                 0.9216
 IR Inten    --      3.0196                 0.1801                12.4656

                     22                     23                     24
                      A                      A                      A
 Frequencies --    874.0124               938.5799               952.6399
 Red. masses --      1.2739                 3.3009                 1.3771
 Frc consts  --      0.5733                 1.7133                 0.7363
 IR Inten    --     90.5319                36.9084                44.9108

                     25                     26                     27
                      A                      A                      A
 Frequencies --    963.6060               997.4440              1036.6680
 Red. masses --      1.9928                 2.2417                 1.9875
 Frc consts  --      1.0902                 1.3140                 1.2585
 IR Inten    --      7.0515                26.1695                 4.5195

                     28                     29                     30
                      A                      A                      A
 Frequencies --   1078.3966              1091.9837              1097.0104
 Red. masses --      2.7186                 3.4642                 2.6550
 Frc consts  --      1.8628                 2.4338                 1.8825
 IR Inten    --     40.3324               136.8574                71.2070

                     31                     32                     33
                      A                      A                      A
 Frequencies --   1140.7257              1159.6446              1170.5700
 Red. masses --      1.9370                 4.1561                 1.6759
 Frc consts  --      1.4850                 3.2930                 1.3530
 IR Inten    --     17.8234               152.4706                36.0652

                     34                     35                     36
                      A                      A                      A
 Frequencies --   1188.7516              1191.8646              1225.3236
 Red. masses --      1.2966                 1.2919                 1.5094
 Frc consts  --      1.0795                 1.0813                 1.3352
 IR Inten    --      3.4911                 3.0497                12.2045

                     37                     38                     39
                      A                      A                      A
 Frequencies --   1231.8084              1247.8325              1279.7190
 Red. masses --      1.5073                 1.5365                 1.3106
 Frc consts  --      1.3476                 1.4096                 1.2646
 IR Inten    --     19.5847                 0.9119                16.8719

                     40                     41                     42
                      A                      A                      A
 Frequencies --   1318.2852              1356.3671              1379.1319
 Red. masses --      1.4358                 1.3576                 1.2369
 Frc consts  --      1.4702                 1.4716                 1.3861
 IR Inten    --      8.0832                 1.7080                 8.6607

                     43                     44                     45
                      A                      A                      A
 Frequencies --   1396.2416              1416.2988              1435.6518
 Red. masses --      1.2950                 1.1857                 1.3161
 Frc consts  --      1.4874                 1.4013                 1.5982
 IR Inten    --      6.6266                14.8568                 6.3287

                     46                     47                     48
                      A                      A                      A
 Frequencies --   1446.0946              1456.8114              1488.5299
 Red. masses --      1.4079                 1.4034                 1.1435
 Frc consts  --      1.7347                 1.7548                 1.4928
 IR Inten    --      7.9557                10.3901                 0.2461

                     49                     50                     51
                      A                      A                      A
 Frequencies --   1500.3626              1506.0961              1513.0877
 Red. masses --      1.1441                 1.1132                 1.0500
 Frc consts  --      1.5174                 1.4877                 1.4164
 IR Inten    --      4.4091                 0.3969                 2.4303

                     52                     53                     54
                      A                      A                      A
 Frequencies --   1524.3598              1526.3779              1535.3105
 Red. masses --      1.0613                 1.0645                 1.0705
 Frc consts  --      1.4530                 1.4613                 1.4867
 IR Inten    --      2.5026                 0.7940                 3.7453

                     55                     56                     57
                      A                      A                      A
 Frequencies --   1539.9561              1543.6846              1546.1503
 Red. masses --      1.0536                 1.0513                 1.0518
 Frc consts  --      1.4722                 1.4761                 1.4815
 IR Inten    --      6.4175                 7.4843                 6.0415

                     58                     59                     60
                      A                      A                      A
 Frequencies --   1701.1171              3007.9409              3013.6110
 Red. masses --      1.0863                 1.0684                 1.0443
 Frc consts  --      1.8522                 5.6953                 5.5879
 IR Inten    --     27.8320                47.5972                45.9645

                     61                     62                     63
                      A                      A                      A
 Frequencies --   3028.7167              3035.5841              3040.5581
 Red. masses --      1.0400                 1.0635                 1.0740
 Frc consts  --      5.6209                 5.7741                 5.8501
 IR Inten    --     46.1702                 4.6691                27.8368

                     64                     65                     66
                      A                      A                      A
 Frequencies --   3047.0859              3053.8854              3078.8779
 Red. masses --      1.0577                 1.0634                 1.0952
 Frc consts  --      5.7862                 5.8435                 6.1166
 IR Inten    --     51.5413                30.7379                33.1232

                     67                     68                     69
                      A                      A                      A
 Frequencies --   3088.5456              3091.8714              3096.2314
 Red. masses --      1.0931                 1.1010                 1.1033
 Frc consts  --      6.1435                 6.2013                 6.2316
 IR Inten    --     35.0797                67.8734                21.5972

                     70                     71                     72
                      A                      A                      A
 Frequencies --   3104.6857              3116.8737              3141.1963
 Red. masses --      1.1009                 1.1009                 1.1023
 Frc consts  --      6.2522                 6.3014                 6.4083
 IR Inten    --     44.6749                35.3426                34.1144

                     73                     74                     75
                      A                      A                      A
 Frequencies --   3147.1610              3466.2683              3546.9256
 Red. masses --      1.1023                 1.0501                 1.0916
 Frc consts  --      6.4327                 7.4340                 8.0917
 IR Inten    --     25.9670                 3.1427                 0.8722

 - Thermochemistry -
 -------------------
 Temperature   298.150 Kelvin.  Pressure   1.00000 Atm.
 Atom     1 has atomic number  6 and mass  12.00000

 Molecular mass:   147.12593 amu.
 Principal axes and moments of inertia in atomic units:
                           1         2         3
     Eigenvalues --   891.256852507.245212838.74022
           X            0.99988  -0.00355   0.01488
           Y            0.00316   0.99964   0.02675
           Z           -0.01497  -0.02670   0.99953
 This molecule is an asymmetric top.
 Rotational symmetry number  1.
 Warning -- assumption of classical behavior for rotation
           may cause significant error
 Rotational temperatures (Kelvin)      0.09718     0.03455     0.03051
 Rotational constants (GHZ):           2.02494     0.71981     0.63575
 Zero-point vibrational energy     646034.2 (Joules/Mol)
                                  154.40587 (Kcal/Mol)
 Warning -- explicit consideration of  18 degrees of freedom as
           vibrations may cause significant error
 Vibrational temperatures:     23.91   114.91   129.74   156.00   178.56
          (Kelvin)            217.95   261.94   303.47   332.74   354.75
                              395.29   408.47   437.07   516.42   566.55
                              605.17   760.32   839.12   958.76  1150.94
                             1224.06  1257.51  1350.41  1370.64  1386.41
                             1435.10  1491.53  1551.57  1571.12  1578.35
                             1641.25  1668.47  1684.19  1710.35  1714.83
                             1762.97  1772.30  1795.35  1841.23  1896.72
                             1951.51  1984.26  2008.88  2037.74  2065.58
                             2080.61  2096.03  2141.66  2158.69  2166.94
                             2177.00  2193.21  2196.12  2208.97  2215.65
                             2221.02  2224.57  2447.53  4327.76  4335.91
                             4357.65  4367.53  4374.68  4384.08  4393.86
                             4429.82  4443.73  4448.51  4454.79  4466.95
                             4484.49  4519.48  4528.06  4987.19  5103.23

 Zero-point correction=                           0.246061 (Hartree/Particle)
 Thermal correction to Energy=                    0.259022
 Thermal correction to Enthalpy=                  0.259966
 Thermal correction to Gibbs Free Energy=         0.206100
 Sum of electronic and zero-point Energies=           -481.941998
 Sum of electronic and thermal Energies=              -481.929037
 Sum of electronic and thermal Enthalpies=            -481.928093
 Sum of electronic and thermal Free Energies=         -481.981959

                     E (Thermal)             CV                S
                      KCal/Mol        Cal/Mol-Kelvin    Cal/Mol-Kelvin
 Total                  162.539             45.662            113.371
 Electronic               0.000              0.000              0.000
 Translational            0.889              2.981             40.869
 Rotational               0.889              2.981             30.229
 Vibrational            160.761             39.700             42.273
 Vibration     1          0.593              1.986              7.002
 Vibration     2          0.600              1.963              3.894
 Vibration     3          0.602              1.956              3.656
 Vibration     4          0.606              1.942              3.297
 Vibration     5          0.610              1.929              3.035
 Vibration     6          0.619              1.901              2.654
 Vibration     7          0.630              1.864              2.307
 Vibration     8          0.643              1.824              2.036
 Vibration     9          0.653              1.793              1.869
 Vibration    10          0.661              1.768              1.755
 Vibration    11          0.677              1.720              1.566
 Vibration    12          0.682              1.704              1.510
 Vibration    13          0.695              1.667              1.396
 Vibration    14          0.734              1.557              1.127
 Vibration    15          0.761              1.483              0.986
 Vibration    16          0.783              1.425              0.890
 Vibration    17          0.883              1.187              0.591
 Vibration    18          0.940              1.068              0.479

 Optimization completed.
    -- Stationary point found.
 Normal termination of Gaussian 16 at Tue Dec  8 11:01:34 2020.

 ----------------------------------------------------------------------
 # B3LYP/6-311++G(d,p) empiricaldispersion=gd3bj scf=xqc pop=npa geom=c
 heck
 ----------------------------------------------------------------------

 -------------------------------------
 CID_88904649_JID_432_Energie_neutraal
 -------------------------------------
 Structure from the checkpoint file:  "JID_432.chk"
 Charge =  0 Multiplicity = 1

 SCF Done:  E(RB3LYP) =  -482.340744965     A.U. after   13 cycles
 Normal termination of Gaussian 16 at Tue Dec  8 11:06:27 2020.

 ----------------------------------------------------------------------
 # B3LYP/6-311++G(d,p) empiricaldispersion=gd3bj scf=xqc pop=npa geom=c
 heck
 ----------------------------------------------------------------------

 -----------------------------------
 CID_88904649_JID_432_Energie_kation
 -----------------------------------
 Structure from the checkpoint file:  "JID_432.chk"
 Charge =  1 Multiplicity = 2

 SCF Done:  E(UB3LYP) =  -482.020689928     A.U. after   21 cycles
 Normal termination of Gaussian 16 at Tue Dec  8 11:10:58 2020.
 Gaussian 16:  ES64L-G16RevA.03 25-Dec-2016

 ----------------------------------------------------------------------
 # B3LYP/6-311++G(d,p) empiricaldispersion=gd3bj scf=xqc pop=npa geom=c
 heck
 ----------------------------------------------------------------------

 ----------------------------------
 CID_88904649_JID_432_Energie_anion
 ----------------------------------
 Structure from the checkpoint file:  "JID_432.chk"
 Charge = -1 Multiplicity = 2

                         Standard orientation:
 ---------------------------------------------------------------------
 Center     Atomic      Atomic             Coordinates (Angstroms)
 Number     Number       Type             X           Y           Z
 ---------------------------------------------------------------------
      1          6           0        1.861223   -1.017848    1.364212
      2          6           0        1.495402   -0.819854   -0.114245
      3          6           0       -0.005534   -1.053073   -0.384151
      4          6           0       -0.984870   -0.168605    0.384771
      5          8           0       -0.943510    1.122039   -0.183771
      6          6           0       -1.647859    2.094829    0.573014
      7          8           0       -2.303717   -0.685546    0.417618
      8          6           0       -2.908858   -0.881945   -0.853923
      9          6           0        2.001803    0.529193   -0.645857
     10          7           0        3.472729    0.571605   -0.630312
     11          1           0        1.487447   -0.196998    1.989149
     12          1           0        2.947569   -1.067418    1.492759
     13          1           0        1.442988   -1.952372    1.756192
     14          1           0        2.031666   -1.587120   -0.688386
     15          1           0       -0.200207   -0.933550   -1.456699
     16          1           0       -0.248354   -2.090351   -0.122784
     17          1           0       -0.717652   -0.113939    1.448721
     18          1           0       -1.226521    2.189169    1.585454
     19          1           0       -1.534845    3.045947    0.047708
     20          1           0       -2.711491    1.844862    0.658914
     21          1           0       -2.795991    0.001907   -1.492830
     22          1           0       -2.494055   -1.754924   -1.375590
     23          1           0       -3.970556   -1.058205   -0.664873
     24          1           0        1.678489    0.640245   -1.687505
     25          1           0        1.524769    1.347720   -0.085306
     26          1           0        3.788821    1.399166   -1.133276
     27          1           0        3.798785    0.696501    0.326830
 ---------------------------------------------------------------------

 SCF Done:  E(UB3LYP) =  -482.324080354     A.U. after   28 cycles

 The electronic state is 2-A.
 Alpha  occ. eigenvalues --  -19.02721 -19.02594 -14.18264 -10.16372 -10.10788
 Alpha  occ. eigenvalues --  -10.10670 -10.07556 -10.06926 -10.06574 -10.05532
 Alpha  occ. eigenvalues --   -0.97000  -0.90774  -0.77380  -0.69855  -0.63818
 Alpha  occ. eigenvalues --   -0.59415  -0.57751  -0.55752  -0.49419  -0.45209
 Alpha  occ. eigenvalues --   -0.41279  -0.41002  -0.38886  -0.36094  -0.35967
 Alpha  occ. eigenvalues --   -0.34022  -0.33438  -0.32535  -0.31583  -0.30155
 Alpha  occ. eigenvalues --   -0.29730  -0.27623  -0.26694  -0.25860  -0.23897
 Alpha  occ. eigenvalues --   -0.22873  -0.22244  -0.19800  -0.17751  -0.17064
 Alpha  occ. eigenvalues --   -0.13457   0.04672
 Alpha virt. eigenvalues --    0.06618   0.07451   0.07941   0.08934   0.09968
 Alpha virt. eigenvalues --    0.10068   0.10521   0.10934   0.12008   0.12454
 Alpha virt. eigenvalues --    0.12712   0.13502   0.14281   0.14463   0.14866

  Beta  occ. eigenvalues --  -19.02714 -19.02587 -14.18224 -10.16366 -10.10754
  Beta  occ. eigenvalues --  -10.10634 -10.07538 -10.06921 -10.06566 -10.05500
  Beta  occ. eigenvalues --   -0.96986  -0.90759  -0.77318  -0.69824  -0.63781
  Beta  occ. eigenvalues --   -0.59361  -0.57691  -0.55682  -0.49365  -0.45162
  Beta  occ. eigenvalues --   -0.41244  -0.40973  -0.38851  -0.36058  -0.35918
  Beta  occ. eigenvalues --   -0.33980  -0.33401  -0.32503  -0.31542  -0.30118
  Beta  occ. eigenvalues --   -0.29685  -0.27590  -0.26662  -0.25824  -0.23863
  Beta  occ. eigenvalues --   -0.22840  -0.22220  -0.19768  -0.17727  -0.17048
  Beta  occ. eigenvalues --   -0.13416
  Beta virt. eigenvalues --    0.06920   0.07731   0.08056   0.08540   0.09530
  Beta virt. eigenvalues --    0.10506   0.10727   0.10866   0.11343   0.12537
  Beta virt. eigenvalues --    0.12947   0.13086   0.13702   0.14560   0.14897

 Mulliken charges and spin densities:
               1          2
     1  C    0.451845  -1.105250
     2  C   -0.851843   1.264818
     3  C    1.040465  -1.181884
     4  C   -1.462920   0.656144
     5  O   -0.110633   0.059042
     6  C    0.873332  -1.089210
     7  O   -0.109455   0.029574
     8  C    0.871164  -1.108496
     9  C    0.769721  -1.494505
    10  N   -0.380072   0.049065
    11  H   -0.322992   0.468763
    12  H   -0.166180   0.290119
    13  H   -0.045981   0.178764
    14  H    0.050547   0.145299
    15  H    0.131016   0.034715
    16  H    0.076626   0.107024
    17  H    0.332991  -0.125368
    18  H   -0.355941   0.494804
    19  H   -0.334058   0.477050
    20  H   -0.105049   0.247035
    21  H   -0.121663   0.283180
    22  H   -0.279853   0.408970
    23  H   -0.366543   0.517699
    24  H   -0.123614   0.298868
    25  H   -0.219841   0.397811
    26  H   -0.138905   0.375727
    27  H   -0.102163   0.320240
 Sum of Mulliken charges =  -1.00000   1.00000

 Dipole moment (field-independent basis, Debye):
    X=             -1.2355    Y=             -2.5938    Z=              0.0220  Tot=              2.8731
 Quadrupole moment (field-independent basis, Debye-Ang):
   XX=           -136.0107   YY=           -103.7079   ZZ=            -97.7918
   XY=             -4.9908   XZ=             -2.6590   YZ=             -1.6501

 Summary of Natural Population Analysis:

                                       Natural Population
                Natural  -----------------------------------------------
    Atom  No    Charge         Core      Valence    Rydberg      Total
 -----------------------------------------------------------------------
      C    1   -0.29105      0.99965     2.28529    0.00611     3.29105
      C    2   -0.11360      0.99960     2.10348    0.01052     3.11360
      C    3   -0.20530      0.99958     2.19735    0.00837     3.20530
      C    4    0.22268      0.99956     1.75974    0.01802     2.77732
      O    5   -0.30417      0.99987     3.29486    0.00944     4.30417
      C    6   -0.10193      0.99961     2.09239    0.00994     3.10193
      O    7   -0.30622      0.99989     3.29633    0.01001     4.30622
      C    8   -0.10662      0.99960     2.09726    0.00976     3.10662
      C    9   -0.08812      0.99960     2.07647    0.01205     3.08812
      N   10   -0.42525      0.99977     2.91514    0.01033     3.92525
      H   11    0.09746      0.00000     0.40110    0.00144     0.40254
      H   12    0.10222      0.00000     0.39672    0.00106     0.39778
      H   13    0.09768      0.00000     0.40132    0.00100     0.40232
      H   14    0.09704      0.00000     0.40105    0.00191     0.40296
      H   15    0.10364      0.00000     0.39441    0.00195     0.39636
      H   16    0.10247      0.00000     0.39642    0.00111     0.39753
      H   17    0.07814      0.00000     0.41943    0.00243     0.42186
      H   18    0.08077      0.00000     0.41759    0.00164     0.41923
      H   19    0.09132      0.00000     0.40744    0.00124     0.40868
      H   20    0.08510      0.00000     0.41337    0.00153     0.41490
      H   21    0.08739      0.00000     0.41104    0.00156     0.41261
      H   22    0.07984      0.00000     0.41880    0.00136     0.42016
      H   23    0.09036      0.00000     0.40836    0.00128     0.40964
      H   24    0.09043      0.00000     0.40818    0.00139     0.40957
      H   25    0.08726      0.00000     0.41017    0.00257     0.41274
      H   26    0.17541      0.00000     0.32246    0.00213     0.32459
      H   27    0.17305      0.00000     0.32439    0.00256     0.32695
 =======================================================================
   * Total *   -0.00000      9.99672    30.87058    0.13270    41.00000

 Normal termination of Gaussian 16 at Tue Dec  8 11:19:00 2020.
