 Gaussian 16, Revision A.03,

 -----------------------------------------------------------
 # opt freq B3LYP/6-31G(d) empiricaldispersion=gd3bj scf=xqc
 -----------------------------------------------------------

 -------------------------------
 CID_154481421_JID_1675_neutraal
 -------------------------------
 Symbolic Z-matrix:
 Charge =  0 Multiplicity = 1

 SCF Done:  E(RB3LYP) =  -574.869971667     A.U. after   14 cycles
 SCF Done:  E(RB3LYP) =  -574.874606872     A.U. after   14 cycles
 SCF Done:  E(RB3LYP) =  -574.875153517     A.U. after   13 cycles
 SCF Done:  E(RB3LYP) =  -574.875315675     A.U. after   13 cycles
 SCF Done:  E(RB3LYP) =  -574.875594077     A.U. after   12 cycles
 SCF Done:  E(RB3LYP) =  -574.875778746     A.U. after   12 cycles
 SCF Done:  E(RB3LYP) =  -574.875822023     A.U. after   11 cycles
 SCF Done:  E(RB3LYP) =  -574.875764959     A.U. after   14 cycles
 SCF Done:  E(RB3LYP) =  -574.875919935     A.U. after   12 cycles
 SCF Done:  E(RB3LYP) =  -574.874841509     A.U. after   15 cycles
 SCF Done:  E(RB3LYP) =  -574.876026391     A.U. after   10 cycles
 SCF Done:  E(RB3LYP) =  -574.876028961     A.U. after   10 cycles
 SCF Done:  E(RB3LYP) =  -574.876029481     A.U. after    8 cycles
 SCF Done:  E(RB3LYP) =  -574.876029819     A.U. after    8 cycles
 SCF Done:  E(RB3LYP) =  -574.876029838     A.U. after    7 cycles
 Optimization completed.
    -- Stationary point found.

 1\1\GINC-NODE124\FOpt\RB3LYP\6-31G(d)\C7H12O4\VSC10255\08-Dec-2020\0\\
 # opt freq B3LYP/6-31G(d) empiricaldispersion=gd3bj scf=xqc\\CID_15448
 1421_JID_1675_neutraal\\0,1\C,0.6121644191,0.1097102058,0.3668932693\C
 ,-0.1108061744,-1.1482237473,-0.1259114209\C,0.1533509695,-2.397083242
 8,0.7371935133\C,-0.2587893585,-2.3317800338,2.2141326137\O,-1.5923668
 425,-2.7745074897,2.5106831725\C,-2.6396959166,-2.0523275932,1.9019305
 142\C,-2.62663207,-0.5866104909,2.3119593302\O,-2.7661812446,0.3458259
 855,1.5515263448\C,-2.4866919678,-0.3491813992,3.8220125304\O,-3.23356

 Normal termination of Gaussian 16 at Tue Dec  8 20:53:01 2020.

 --------------------------------------------------------------------
 #N Geom=AllCheck Guess=TCheck SCRF=Check GenChk RB3LYP/6-31G(d) Freq
 --------------------------------------------------------------------

 Structure from the checkpoint file:  "JID_1675.chk"
 -------------------------------
 CID_154481421_JID_1675_neutraal
 -------------------------------
 Charge =  0 Multiplicity = 1

 SCF Done:  E(RB3LYP) =  -574.876029838     A.U. after    1 cycles

  Exact polarizability:  88.744   4.420  80.538  -2.357   0.885  76.584
 Approx polarizability: 117.554  14.265 123.230  -2.705  -2.470 112.916

                      1                      2                      3
                      A                      A                      A
 Frequencies --     29.2633                51.0067                64.9952
 Red. masses --      5.1579                10.1801                 2.9496
 Frc consts  --      0.0026                 0.0156                 0.0073
 IR Inten    --      0.4131                 2.3043                 0.7410

                      4                      5                      6
                      A                      A                      A
 Frequencies --     74.9987               123.0259               143.4710
 Red. masses --      4.4059                 3.7590                 4.6923
 Frc consts  --      0.0146                 0.0335                 0.0569
 IR Inten    --      2.2295                 2.1730                 2.3640

                      7                      8                      9
                      A                      A                      A
 Frequencies --    168.4602               236.8793               261.4617
 Red. masses --      1.8518                 3.7700                 1.8043
 Frc consts  --      0.0310                 0.1246                 0.0727
 IR Inten    --      1.3765                 7.8024                 4.0299

                     10                     11                     12
                      A                      A                      A
 Frequencies --    289.6072               297.2506               363.9700
 Red. masses --      2.5959                 2.0937                 4.9511
 Frc consts  --      0.1283                 0.1090                 0.3864
 IR Inten    --      1.3869                 4.1875                 0.2289

                     13                     14                     15
                      A                      A                      A
 Frequencies --    413.6290               443.3711               500.8243
 Red. masses --      1.8945                 4.1274                 2.1851
 Frc consts  --      0.1910                 0.4780                 0.3229
 IR Inten    --      4.4497                17.4194                 4.4247

                     16                     17                     18
                      A                      A                      A
 Frequencies --    554.6304               576.4156               663.5501
 Red. masses --      3.7685                 2.8617                 1.5676
 Frc consts  --      0.6830                 0.5602                 0.4067
 IR Inten    --     44.2443                32.1702               114.4049

                     19                     20                     21
                      A                      A                      A
 Frequencies --    739.8412               746.4581               808.6837
 Red. masses --      3.4030                 1.5815                 3.0951
 Frc consts  --      1.0975                 0.5192                 1.1926
 IR Inten    --     15.4806                 0.8274                11.8477

                     22                     23                     24
                      A                      A                      A
 Frequencies --    828.5679               853.1154               939.3484
 Red. masses --      2.7865                 1.9217                 2.0209
 Frc consts  --      1.1271                 0.8241                 1.0506
 IR Inten    --      1.6787                10.4975                18.4175

                     25                     26                     27
                      A                      A                      A
 Frequencies --    972.7592              1001.0776              1013.8265
 Red. masses --      1.8456                 1.6378                 2.6989
 Frc consts  --      1.0289                 0.9670                 1.6344
 IR Inten    --      5.3530                 1.3835                22.2150

                     28                     29                     30
                      A                      A                      A
 Frequencies --   1089.8459              1114.9944              1131.9870
 Red. masses --      2.1390                 3.0381                 2.2128
 Frc consts  --      1.4969                 2.2254                 1.6706
 IR Inten    --      7.1821                57.7361                25.2305

                     31                     32                     33
                      A                      A                      A
 Frequencies --   1155.5629              1180.3299              1224.4640
 Red. masses --      2.8137                 2.6122                 2.0658
 Frc consts  --      2.2137                 2.1442                 1.8248
 IR Inten    --    114.4675                76.2492                49.5075

                     34                     35                     36
                      A                      A                      A
 Frequencies --   1267.2988              1290.6408              1312.5400
 Red. masses --      1.2268                 1.2306                 1.2202
 Frc consts  --      1.1609                 1.2078                 1.2386
 IR Inten    --      8.4372                25.0171                 1.3593

                     37                     38                     39
                      A                      A                      A
 Frequencies --   1362.9686              1379.3109              1391.6601
 Red. masses --      1.1167                 1.3283                 1.3447
 Frc consts  --      1.2223                 1.4889                 1.5344
 IR Inten    --      2.6594                 4.1958                 4.7998

                     40                     41                     42
                      A                      A                      A
 Frequencies --   1401.4082              1407.9685              1443.0602
 Red. masses --      2.9934                 1.4147                 1.2953
 Frc consts  --      3.4638                 1.6524                 1.5892
 IR Inten    --     23.9933                 0.9377                 6.5165

                     43                     44                     45
                      A                      A                      A
 Frequencies --   1448.1933              1501.2036              1503.9511
 Red. masses --      1.2322                 1.0881                 1.0799
 Frc consts  --      1.5226                 1.4448                 1.4391
 IR Inten    --      5.8545                 7.3988                10.1273

                     46                     47                     48
                      A                      A                      A
 Frequencies --   1524.4025              1530.4597              1538.5581
 Red. masses --      1.0470                 1.0639                 1.0766
 Frc consts  --      1.4335                 1.4683                 1.5016
 IR Inten    --      1.1777                 2.7056                 9.5937

                     49                     50                     51
                      A                      A                      A
 Frequencies --   1546.1626              1823.4557              1845.0305
 Red. masses --      1.0723                12.4843                10.7306
 Frc consts  --      1.5103                24.4571                21.5219
 IR Inten    --      3.4629               137.5596               212.1593

                     52                     53                     54
                      A                      A                      A
 Frequencies --   3030.9369              3034.5660              3047.1266
 Red. masses --      1.0643                 1.0671                 1.0449
 Frc consts  --      5.7606                 5.7895                 5.7164
 IR Inten    --     17.6899                18.3520                34.9356

                     55                     56                     57
                      A                      A                      A
 Frequencies --   3050.2092              3064.2773              3074.2066
 Red. masses --      1.0644                 1.0573                 1.0982
 Frc consts  --      5.8348                 5.8493                 6.1150
 IR Inten    --     22.3434                17.0659                30.3322

                     58                     59                     60
                      A                      A                      A
 Frequencies --   3098.3903              3112.5276              3116.1056
 Red. masses --      1.0947                 1.1055                 1.0958
 Frc consts  --      6.1916                 6.3102                 6.2690
 IR Inten    --     12.5701                27.5710                24.7609

                     61                     62                     63
                      A                      A                      A
 Frequencies --   3120.2695              3125.8459              3662.3587
 Red. masses --      1.0994                 1.1020                 1.0639
 Frc consts  --      6.3064                 6.3442                 8.4075
 IR Inten    --     50.5587                41.7034                56.9414

 - Thermochemistry -
 -------------------
 Temperature   298.150 Kelvin.  Pressure   1.00000 Atm.
 Atom     1 has atomic number  6 and mass  12.00000

 Molecular mass:   160.07356 amu.
 Principal axes and moments of inertia in atomic units:
                           1         2         3
     Eigenvalues --  1145.345572391.238222710.07622
           X            0.99987   0.01581   0.00233
           Y           -0.01591   0.99849   0.05250
           Z           -0.00149  -0.05253   0.99862
 This molecule is an asymmetric top.
 Rotational symmetry number  1.
 Warning -- assumption of classical behavior for rotation
           may cause significant error
 Rotational temperatures (Kelvin)      0.07562     0.03622     0.03196
 Rotational constants (GHZ):           1.57572     0.75473     0.66594
 Zero-point vibrational energy     503106.1 (Joules/Mol)
                                  120.24524 (Kcal/Mol)
 Warning -- explicit consideration of  17 degrees of freedom as
           vibrations may cause significant error
 Vibrational temperatures:     42.10    73.39    93.51   107.91   177.01
          (Kelvin)            206.42   242.38   340.82   376.19   416.68
                              427.68   523.67   595.12   637.91   720.57
                              797.99   829.33   954.70  1064.47  1073.99
                             1163.52  1192.12  1227.44  1351.51  1399.58
                             1440.33  1458.67  1568.05  1604.23  1628.68
                             1662.60  1698.23  1761.73  1823.36  1856.94
                             1888.45  1961.01  1984.52  2002.29  2016.31
                             2025.75  2076.24  2083.63  2159.90  2163.85
                             2193.28  2201.99  2213.64  2224.58  2623.55
                             2654.59  4360.84  4366.06  4384.14  4388.57
                             4408.81  4423.10  4457.89  4478.23  4483.38
                             4489.37  4497.40  5269.32

 Zero-point correction=                           0.191623 (Hartree/Particle)
 Thermal correction to Energy=                    0.203973
 Thermal correction to Enthalpy=                  0.204917
 Thermal correction to Gibbs Free Energy=         0.151671
 Sum of electronic and zero-point Energies=           -574.684407
 Sum of electronic and thermal Energies=              -574.672057
 Sum of electronic and thermal Enthalpies=            -574.671113
 Sum of electronic and thermal Free Energies=         -574.724359

                     E (Thermal)             CV                S
                      KCal/Mol        Cal/Mol-Kelvin    Cal/Mol-Kelvin
 Total                  127.995             43.208            112.065
 Electronic               0.000              0.000              0.000
 Translational            0.889              2.981             41.120
 Rotational               0.889              2.981             30.385
 Vibrational            126.217             37.247             40.559
 Vibration     1          0.593              1.984              5.879
 Vibration     2          0.595              1.977              4.778
 Vibration     3          0.597              1.971              4.299
 Vibration     4          0.599              1.966              4.018
 Vibration     5          0.610              1.930              3.052
 Vibration     6          0.616              1.910              2.757
 Vibration     7          0.625              1.881              2.453
 Vibration     8          0.656              1.784              1.826
 Vibration     9          0.669              1.743              1.652
 Vibration    10          0.686              1.693              1.476
 Vibration    11          0.691              1.679              1.432
 Vibration    12          0.738              1.546              1.105
 Vibration    13          0.777              1.441              0.914
 Vibration    14          0.803              1.376              0.816
 Vibration    15          0.856              1.248              0.656
 Vibration    16          0.910              1.130              0.535
 Vibration    17          0.933              1.082              0.492

 Optimization completed.
    -- Stationary point found.

 1\1\GINC-NODE124\Freq\RB3LYP\6-31G(d)\C7H12O4\VSC10255\08-Dec-2020\0\\
 #N Geom=AllCheck Guess=TCheck SCRF=Check GenChk RB3LYP/6-31G(d) Freq\\
 CID_154481421_JID_1675_neutraal\\0,1\C,0.6121644191,0.1097102058,0.366
 8932693\C,-0.1108061744,-1.1482237473,-0.1259114209\C,0.1533509695,-2.
 3970832428,0.7371935133\C,-0.2587893585,-2.3317800338,2.2141326137\O,-
 1.5923668425,-2.7745074897,2.5106831725\C,-2.6396959166,-2.0523275932,
 1.9019305142\C,-2.62663207,-0.5866104909,2.3119593302\O,-2.7661812446,
 0.3458259855,1.5515263448\C,-2.4866919678,-0.3491813992,3.8220125304\O

 Normal termination of Gaussian 16 at Tue Dec  8 20:58:10 2020.

 ----------------------------------------------------------------------
 # B3LYP/6-311++G(d,p) empiricaldispersion=gd3bj scf=xqc pop=npa geom=c
 heck
 ----------------------------------------------------------------------

 ---------------------------------------
 CID_154481421_JID_1675_Energie_neutraal
 ---------------------------------------
 Structure from the checkpoint file:  "JID_1675.chk"
 Charge =  0 Multiplicity = 1

 SCF Done:  E(RB3LYP) =  -575.057680655     A.U. after   14 cycles
 Normal termination of Gaussian 16 at Tue Dec  8 21:00:47 2020.

 ----------------------------------------------------------------------
 # B3LYP/6-311++G(d,p) empiricaldispersion=gd3bj scf=xqc pop=npa geom=c
 heck
 ----------------------------------------------------------------------

 -------------------------------------
 CID_154481421_JID_1675_Energie_kation
 -------------------------------------
 Structure from the checkpoint file:  "JID_1675.chk"
 Charge =  1 Multiplicity = 2

 SCF Done:  E(UB3LYP) =  -574.715207028     A.U. after   22 cycles
 Normal termination of Gaussian 16 at Tue Dec  8 21:07:07 2020.
 Gaussian 16:  ES64L-G16RevA.03 25-Dec-2016

 ------------------------------------
 CID_154481421_JID_1675_Energie_anion
 ------------------------------------
 Structure from the checkpoint file:  "JID_1675.chk"
 Charge = -1 Multiplicity = 2

                         Standard orientation:
 ---------------------------------------------------------------------
 Center     Atomic      Atomic             Coordinates (Angstroms)
 Number     Number       Type             X           Y           Z
 ---------------------------------------------------------------------
      1          6           0        2.381583    1.671259    0.388288
      2          6           0        2.553693    0.396855   -0.444907
      3          6           0        2.311049   -0.902639    0.346812
      4          6           0        0.922908   -1.097022    0.971915
      5          8           0       -0.043955   -1.768843    0.149594
      6          6           0       -0.377166   -1.135887   -1.065873
      7          6           0       -0.969325    0.247502   -0.837388
      8          8           0       -0.664391    1.241804   -1.458314
      9          6           0       -2.073077    0.299516    0.228088
     10          8           0       -3.052462   -0.406298    0.185824
     11          8           0       -1.838820    1.241884    1.159040
     12          1           0        1.342838    1.819420    0.701465
     13          1           0        2.669595    2.553993   -0.192218
     14          1           0        3.006015    1.643085    1.290217
     15          1           0        1.899545    0.458692   -1.320538
     16          1           0        3.579104    0.359694   -0.834916
     17          1           0        2.527875   -1.780123   -0.276365
     18          1           0        3.038225   -0.929187    1.170473
     19          1           0        1.000321   -1.752298    1.843326
     20          1           0        0.516208   -0.138375    1.323626
     21          1           0        0.467423   -1.046724   -1.757920
     22          1           0       -1.147399   -1.763340   -1.529059
     23          1           0       -2.600730    1.229285    1.771150
 ---------------------------------------------------------------------

 SCF Done:  E(UB3LYP) =  -575.067358857     A.U. after   33 cycles
 SCF Done:  E(UB3LYP) =  -575.067358857     a.u. after    1 cycles

 The electronic state is 2-A.
 Alpha  occ. eigenvalues --  -19.01981 -18.98310 -18.94742 -18.91611 -10.12337
 Alpha  occ. eigenvalues --  -10.08302 -10.06463 -10.04953 -10.04807 -10.04682
 Alpha  occ. eigenvalues --  -10.04100  -0.95514  -0.89457  -0.86376  -0.85768
 Alpha  occ. eigenvalues --   -0.67473  -0.60955  -0.56668  -0.52407  -0.49588
 Alpha  occ. eigenvalues --   -0.45177  -0.40303  -0.36562  -0.35952  -0.33480
 Alpha  occ. eigenvalues --   -0.33252  -0.31318  -0.30419  -0.29153  -0.28253
 Alpha  occ. eigenvalues --   -0.27083  -0.26547  -0.25252  -0.24277  -0.22638
 Alpha  occ. eigenvalues --   -0.21912  -0.20895  -0.20399  -0.18026  -0.17515
 Alpha  occ. eigenvalues --   -0.14505  -0.12906  -0.06687   0.05734
 Alpha virt. eigenvalues --    0.07716   0.09379   0.09671   0.10388   0.11347
 Alpha virt. eigenvalues --    0.12292   0.12943   0.13673   0.14211   0.16124
 Alpha virt. eigenvalues --    0.16772   0.17180   0.17295   0.18330   0.18913

  Beta  occ. eigenvalues --  -19.01906 -18.98238 -18.94464 -18.90879 -10.12155
  Beta  occ. eigenvalues --  -10.08277 -10.06502 -10.04947 -10.04681 -10.04320
  Beta  occ. eigenvalues --  -10.04099  -0.95223  -0.89274  -0.85944  -0.84467
  Beta  occ. eigenvalues --   -0.67448  -0.60838  -0.56343  -0.51748  -0.49393
  Beta  occ. eigenvalues --   -0.45056  -0.39694  -0.36413  -0.35764  -0.33248
  Beta  occ. eigenvalues --   -0.32873  -0.30896  -0.30247  -0.28758  -0.27834
  Beta  occ. eigenvalues --   -0.26831  -0.26144  -0.24914  -0.23876  -0.22584
  Beta  occ. eigenvalues --   -0.21813  -0.20761  -0.17848  -0.17612  -0.16184
  Beta  occ. eigenvalues --   -0.13834  -0.12684  -0.06087
  Beta virt. eigenvalues --    0.07799   0.09345   0.09727   0.10321   0.11383
  Beta virt. eigenvalues --    0.12261   0.12866   0.13391   0.13818   0.14522
  Beta virt. eigenvalues --    0.16027   0.16655   0.17201   0.18101   0.18518

 Mulliken charges and spin densities:
               1          2
     1  C   -0.546303  -0.052554
     2  C   -0.133691   0.122455
     3  C    0.200529  -0.492747
     4  C   -0.437342   0.223080
     5  O   -0.083801  -0.003793
     6  C    0.036746  -0.277939
     7  C    0.037366   0.332752
     8  O   -0.322931   0.236012
     9  C   -0.352636   0.173730
    10  O   -0.333127   0.085318
    11  O   -0.134627  -0.006812
    12  H    0.188742  -0.001144
    13  H    0.109392   0.004205
    14  H    0.054208   0.043803
    15  H    0.149637  -0.018145
    16  H    0.106273   0.021475
    17  H    0.090133   0.059688
    18  H   -0.079369   0.184639
    19  H   -0.118305   0.285878
    20  H    0.186621  -0.083284
    21  H    0.104978   0.024082
    22  H    0.107565   0.080334
    23  H    0.169942   0.058968
 Sum of Mulliken charges =  -1.00000   1.00000

 Dipole moment (field-independent basis, Debye):
    X=              3.8113    Y=              0.3924    Z=              1.9674  Tot=              4.3070
 Quadrupole moment (field-independent basis, Debye-Ang):
   XX=            -96.4729   YY=            -89.2758   ZZ=            -78.0310
   XY=             -1.4103   XZ=             -5.4036   YZ=              6.4063

 Summary of Natural Population Analysis:

                                       Natural Population
                Natural  -----------------------------------------------
    Atom  No    Charge         Core      Valence    Rydberg      Total
 -----------------------------------------------------------------------
      C    1   -0.28766      0.99967     2.28301    0.00498     3.28766
      C    2   -0.19743      0.99964     2.18913    0.00866     3.19743
      C    3   -0.20751      0.99963     2.19898    0.00890     3.20751
      C    4   -0.01430      0.99956     2.00055    0.01419     3.01430
      O    5   -0.29546      0.99989     3.28605    0.00951     4.29546
      C    6   -0.05647      0.99955     2.04205    0.01487     3.05647
      C    7    0.27996      0.99966     1.69805    0.02233     2.72004
      O    8   -0.21999      0.99987     3.21304    0.00708     4.21999
      C    9    0.39432      0.99970     1.57875    0.02722     2.60568
      O   10   -0.29885      0.99987     3.29197    0.00702     4.29885
      O   11   -0.34631      0.99987     3.33835    0.00809     4.34631
      H   12    0.10964      0.00000     0.38927    0.00109     0.39036
      H   13    0.09551      0.00000     0.40370    0.00079     0.40449
      H   14    0.08587      0.00000     0.41302    0.00111     0.41413
      H   15    0.10853      0.00000     0.38972    0.00175     0.39147
      H   16    0.08583      0.00000     0.41316    0.00101     0.41417
      H   17    0.09882      0.00000     0.40007    0.00111     0.40118
      H   18    0.09273      0.00000     0.40601    0.00126     0.40727
      H   19    0.08517      0.00000     0.41359    0.00125     0.41483
      H   20    0.08714      0.00000     0.41106    0.00181     0.41286
      H   21    0.07694      0.00000     0.42106    0.00200     0.42306
      H   22    0.10047      0.00000     0.39794    0.00159     0.39953
      H   23    0.22306      0.00000     0.27017    0.00677     0.27694
 =======================================================================
   * Total *   -0.00000     10.99691    31.84869    0.15440    43.00000

 Normal termination of Gaussian 16 at Tue Dec  8 21:14:57 2020.
