 Gaussian 16, Revision A.03,

 -----------------------------------------------------------
 # opt freq B3LYP/6-31G(d) empiricaldispersion=gd3bj scf=xqc
 -----------------------------------------------------------

 -------------------------------
 CID_18823817_JID_10962_neutraal
 -------------------------------
 Symbolic Z-matrix:
 Charge =  0 Multiplicity = 1

 SCF Done:  E(RB3LYP) =  -881.967359050     A.U. after   15 cycles
 SCF Done:  E(RB3LYP) =  -881.972469326     A.U. after   13 cycles
 SCF Done:  E(RB3LYP) =  -881.974506287     A.U. after   13 cycles
 SCF Done:  E(RB3LYP) =  -881.977623678     A.U. after   15 cycles
 SCF Done:  E(RB3LYP) =  -881.976674423     A.U. after   15 cycles
 SCF Done:  E(RB3LYP) =  -881.979131277     A.U. after   13 cycles
 SCF Done:  E(RB3LYP) =  -881.979150324     A.U. after   13 cycles
 SCF Done:  E(RB3LYP) =  -881.979362424     A.U. after   12 cycles
 SCF Done:  E(RB3LYP) =  -881.979415786     A.U. after   11 cycles
 SCF Done:  E(RB3LYP) =  -881.979430138     A.U. after   10 cycles
 SCF Done:  E(RB3LYP) =  -881.979431325     A.U. after    9 cycles
 SCF Done:  E(RB3LYP) =  -881.979431468     A.U. after    7 cycles
 Optimization completed.
    -- Stationary point found.
 Normal termination of Gaussian 16 at Sun Dec 13 16:47:19 2020.

 --------------------------------------------------------------------
 #N Geom=AllCheck Guess=TCheck SCRF=Check GenChk RB3LYP/6-31G(d) Freq
 --------------------------------------------------------------------

 Structure from the checkpoint file:  "JID_10962.chk"
 -------------------------------
 CID_18823817_JID_10962_neutraal
 -------------------------------
 Charge =  0 Multiplicity = 1

 SCF Done:  E(RB3LYP) =  -881.979431468     A.U. after    1 cycles

  Exact polarizability: 421.579  -6.276 183.868   0.001  -0.000  71.923
 Approx polarizability: 567.928  -4.883 345.263   0.001   0.000 113.580

                      1                      2                      3
                      A                      A                      A
 Frequencies --     28.2054                46.1889                80.9595
 Red. masses --      5.6481                 3.9768                 5.5602
 Frc consts  --      0.0026                 0.0050                 0.0215
 IR Inten    --      2.1114                 0.1044                 0.7928

                      4                      5                      6
                      A                      A                      A
 Frequencies --     87.1875               106.3145               142.7822
 Red. masses --      5.5370                 5.0152                 1.0601
 Frc consts  --      0.0248                 0.0334                 0.0127
 IR Inten    --      0.1726                 0.4814                 0.0974

                      7                      8                      9
                      A                      A                      A
 Frequencies --    157.9629               179.6613               193.6721
 Red. masses --      2.9216                 5.9827                 1.2423
 Frc consts  --      0.0430                 0.1138                 0.0275
 IR Inten    --      0.1564                 0.6926                 0.2905

                     10                     11                     12
                      A                      A                      A
 Frequencies --    224.0596               241.0618               258.2183
 Red. masses --      4.2797                 5.8213                 4.0887
 Frc consts  --      0.1266                 0.1993                 0.1606
 IR Inten    --      1.1742                 0.9620                 0.2453

                     13                     14                     15
                      A                      A                      A
 Frequencies --    270.8977               315.2756               355.8837
 Red. masses --      8.0539                 2.5937                 4.8493
 Frc consts  --      0.3482                 0.1519                 0.3619
 IR Inten    --     10.9948                 0.0157                 3.1883

                     16                     17                     18
                      A                      A                      A
 Frequencies --    382.6394               389.0072               401.9599
 Red. masses --      4.1739                 1.2839                 2.4139
 Frc consts  --      0.3601                 0.1145                 0.2298
 IR Inten    --      1.2698                82.9559                37.9714

                     19                     20                     21
                      A                      A                      A
 Frequencies --    415.1849               417.0589               432.1657
 Red. masses --      4.1652                 7.5598                 3.3072
 Frc consts  --      0.4230                 0.7747                 0.3639
 IR Inten    --     15.0043                 1.9601                 0.0549

                     22                     23                     24
                      A                      A                      A
 Frequencies --    451.5022               470.8379               532.9018
 Red. masses --      3.0715                 7.0453                 4.8790
 Frc consts  --      0.3689                 0.9202                 0.8163
 IR Inten    --      2.6098                 9.6224                15.1701

                     25                     26                     27
                      A                      A                      A
 Frequencies --    542.2944               567.7930               591.4074
 Red. masses --      2.4097                 5.8098                 5.1152
 Frc consts  --      0.4175                 1.1035                 1.0541
 IR Inten    --     10.8018                16.4501                 1.3699

                     28                     29                     30
                      A                      A                      A
 Frequencies --    626.1605               659.9998               685.1436
 Red. masses --      4.5012                 7.0134                 8.8150
 Frc consts  --      1.0398                 1.8000                 2.4380
 IR Inten    --      0.0635                 3.3346                15.0947

                     31                     32                     33
                      A                      A                      A
 Frequencies --    712.8648               727.5317               733.1100
 Red. masses --      4.6099                 4.4725                 7.0986
 Frc consts  --      1.3802                 1.3948                 2.2478
 IR Inten    --      0.4899                 0.7874                 4.3759

                     34                     35                     36
                      A                      A                      A
 Frequencies --    767.6246               785.0241               807.0740
 Red. masses --      5.0733                 7.4820                 1.3809
 Frc consts  --      1.7613                 2.7166                 0.5300
 IR Inten    --      5.8470                11.3281                17.0087

                     37                     38                     39
                      A                      A                      A
 Frequencies --    813.6758               824.4116               864.3918
 Red. masses --      5.6075                 5.4143                 1.4282
 Frc consts  --      2.1874                 2.1681                 0.6287
 IR Inten    --     67.1826                 1.5468                20.7863

                     40                     41                     42
                      A                      A                      A
 Frequencies --    870.7848               881.9392               913.7248
 Red. masses --      1.3677                 5.5784                 1.3318
 Frc consts  --      0.6110                 2.5565                 0.6551
 IR Inten    --     18.8853                26.8170                 6.4379

                     43                     44                     45
                      A                      A                      A
 Frequencies --    919.3300               955.8701               988.7003
 Red. masses --      1.2988                 1.4316                 3.5474
 Frc consts  --      0.6467                 0.7706                 2.0431
 IR Inten    --      2.5818                12.7358                14.8818

                     46                     47                     48
                      A                      A                      A
 Frequencies --   1012.9823              1032.4790              1035.7371
 Red. masses --      1.2728                 1.5364                 2.4413
 Frc consts  --      0.7695                 0.9650                 1.5430
 IR Inten    --      1.5285                 8.9696                 0.6042

                     49                     50                     51
                      A                      A                      A
 Frequencies --   1040.8698              1061.0106              1083.8974
 Red. masses --      1.6598                 1.4365                 1.5748
 Frc consts  --      1.0595                 0.9528                 1.0901
 IR Inten    --     17.0878                 6.6026                 0.0069

                     52                     53                     54
                      A                      A                      A
 Frequencies --   1100.3003              1136.6911              1155.4519
 Red. masses --      3.7351                 5.4866                 1.5127
 Frc consts  --      2.6643                 4.1768                 1.1899
 IR Inten    --    124.7066               481.1993                45.8516

                     55                     56                     57
                      A                      A                      A
 Frequencies --   1187.1897              1212.6457              1218.6410
 Red. masses --      1.8031                 1.3567                 1.1841
 Frc consts  --      1.4973                 1.1754                 1.0360
 IR Inten    --     15.4732               282.4865                62.2721

                     58                     59                     60
                      A                      A                      A
 Frequencies --   1236.3637              1266.5920              1282.1190
 Red. masses --      4.4734                 2.2979                 1.3203
 Frc consts  --      4.0288                 2.1720                 1.2787
 IR Inten    --    102.5288                53.6081                35.2822

                     61                     62                     63
                      A                      A                      A
 Frequencies --   1318.5331              1325.1753              1364.9443
 Red. masses --      6.5426                 3.8704                 2.4673
 Frc consts  --      6.7017                 4.0045                 2.7083
 IR Inten    --     31.5280               174.6557                 5.5291

                     64                     65                     66
                      A                      A                      A
 Frequencies --   1369.3561              1400.1693              1419.0505
 Red. masses --      6.6109                 1.9334                 1.8365
 Frc consts  --      7.3037                 2.2333                 2.1789
 IR Inten    --     29.1460                82.1087                25.7406

                     67                     68                     69
                      A                      A                      A
 Frequencies --   1439.2849              1452.3414              1480.2064
 Red. masses --      1.2592                 1.2388                 2.5611
 Frc consts  --      1.5369                 1.5396                 3.3061
 IR Inten    --      5.1443                 3.8230                82.0840

                     70                     71                     72
                      A                      A                      A
 Frequencies --   1492.7744              1505.7285              1518.1081
 Red. masses --      2.7982                 1.0452                 2.4861
 Frc consts  --      3.6738                 1.3962                 3.3758
 IR Inten    --      1.3920                 0.1449                43.6516

                     73                     74                     75
                      A                      A                      A
 Frequencies --   1522.8819              1530.6895              1532.4704
 Red. masses --      1.0438                 1.3140                 1.3258
 Frc consts  --      1.4263                 1.8140                 1.8345
 IR Inten    --     15.7267                82.0493                22.5731

                     76                     77                     78
                      A                      A                      A
 Frequencies --   1565.7407              1623.2250              1642.9298
 Red. masses --      2.6126                 6.0521                 7.3887
 Frc consts  --      3.7736                 9.3954                11.7505
 IR Inten    --    138.8255               161.1215                60.3021

                     79                     80                     81
                      A                      A                      A
 Frequencies --   1659.7335              1676.3055              1701.4406
 Red. masses --      6.4802                 6.2298                 7.7217
 Frc consts  --     10.5175                10.3141                13.1704
 IR Inten    --     64.8091               395.9488               192.7791

                     82                     83                     84
                      A                      A                      A
 Frequencies --   1763.8566              3038.4932              3042.9870
 Red. masses --     11.0394                 1.0391                 1.0383
 Frc consts  --     20.2358                 5.6521                 5.6649
 IR Inten    --    189.1876                37.9302                45.0915

                     85                     86                     87
                      A                      A                      A
 Frequencies --   3085.1350              3091.3603              3131.3759
 Red. masses --      1.1004                 1.0999                 1.0994
 Frc consts  --      6.1710                 6.1931                 6.3515
 IR Inten    --     24.2600                13.9115                21.3995

                     88                     89                     90
                      A                      A                      A
 Frequencies --   3135.6809              3158.7414              3170.3064
 Red. masses --      1.1001                 1.0865                 1.0880
 Frc consts  --      6.3733                 6.3870                 6.4430
 IR Inten    --     13.0910                 4.9003                27.2451

                     91                     92                     93
                      A                      A                      A
 Frequencies --   3193.3659              3201.8822              3213.6311
 Red. masses --      1.0934                 1.0908                 1.0915
 Frc consts  --      6.5695                 6.5890                 6.6418
 IR Inten    --     20.2619                 9.2653                 7.4637

                     94                     95                     96
                      A                      A                      A
 Frequencies --   3215.9552              3234.5658              3746.2176
 Red. masses --      1.0903                 1.0944                 1.0659
 Frc consts  --      6.6440                 6.7459                 8.8134
 IR Inten    --      4.3857                44.2417                92.2619

 - Thermochemistry -
 -------------------
 Temperature   298.150 Kelvin.  Pressure   1.00000 Atm.
 Atom     1 has atomic number  6 and mass  12.00000

 Molecular mass:   266.09429 amu.
 Principal axes and moments of inertia in atomic units:
                           1         2         3
     Eigenvalues --  1378.82897********************
           X            0.99999  -0.00467   0.00000
           Y            0.00467   0.99999  -0.00000
           Z           -0.00000   0.00000   1.00000
 This molecule is an asymmetric top.
 Rotational symmetry number  1.
 Warning -- assumption of classical behavior for rotation
           may cause significant error
 Rotational temperatures (Kelvin)      0.06282     0.00618     0.00564
 Rotational constants (GHZ):           1.30889     0.12883     0.11745
 Zero-point vibrational energy     704887.9 (Joules/Mol)
                                  168.47226 (Kcal/Mol)
 Warning -- explicit consideration of  27 degrees of freedom as
           vibrations may cause significant error
 Vibrational temperatures:     40.58    66.46   116.48   125.44   152.96
          (Kelvin)            205.43   227.27   258.49   278.65   322.37
                              346.83   371.52   389.76   453.61   512.04
                              550.53   559.69   578.33   597.36   600.05
                              621.79   649.61   677.43   766.73   780.24
                              816.93   850.90   900.91   949.59   985.77
                             1025.65  1046.76  1054.78  1104.44  1129.47
                             1161.20  1170.70  1186.14  1243.67  1252.87
                             1268.91  1314.65  1322.71  1375.28  1422.52
                             1457.46  1485.51  1490.19  1497.58  1526.56
                             1559.49  1583.09  1635.44  1662.44  1708.10
                             1744.73  1753.35  1778.85  1822.34  1844.68
                             1897.08  1906.63  1963.85  1970.20  2014.53
                             2041.70  2070.81  2089.60  2129.69  2147.77
                             2166.41  2184.22  2191.09  2202.32  2204.88
                             2252.75  2335.46  2363.81  2387.99  2411.83
                             2447.99  2537.80  4371.71  4378.18  4438.82
                             4447.78  4505.35  4511.55  4544.72  4561.36
                             4594.54  4606.79  4623.70  4627.04  4653.82
                             5389.97

 Zero-point correction=                           0.268478 (Hartree/Particle)
 Thermal correction to Energy=                    0.285438
 Thermal correction to Enthalpy=                  0.286382
 Thermal correction to Gibbs Free Energy=         0.223576
 Sum of electronic and zero-point Energies=           -881.710954
 Sum of electronic and thermal Energies=              -881.693994
 Sum of electronic and thermal Enthalpies=            -881.693050
 Sum of electronic and thermal Free Energies=         -881.755855

                     E (Thermal)             CV                S
                      KCal/Mol        Cal/Mol-Kelvin    Cal/Mol-Kelvin
 Total                  179.115             66.778            132.186
 Electronic               0.000              0.000              0.000
 Translational            0.889              2.981             42.635
 Rotational               0.889              2.981             34.050
 Vibrational            177.337             60.817             55.501
 Vibration     1          0.593              1.984              5.952
 Vibration     2          0.595              1.979              4.974
 Vibration     3          0.600              1.962              3.867
 Vibration     4          0.601              1.958              3.722
 Vibration     5          0.605              1.944              3.335
 Vibration     6          0.616              1.910              2.766
 Vibration     7          0.621              1.894              2.574
 Vibration     8          0.629              1.867              2.332
 Vibration     9          0.635              1.849              2.192
 Vibration    10          0.649              1.804              1.926
 Vibration    11          0.658              1.777              1.795
 Vibration    12          0.667              1.749              1.674
 Vibration    13          0.675              1.727              1.590
 Vibration    14          0.703              1.644              1.334
 Vibration    15          0.731              1.563              1.140
 Vibration    16          0.752              1.507              1.029
 Vibration    17          0.757              1.494              1.004
 Vibration    18          0.768              1.466              0.955
 Vibration    19          0.779              1.437              0.908
 Vibration    20          0.780              1.433              0.902
 Vibration    21          0.793              1.400              0.852
 Vibration    22          0.810              1.358              0.791
 Vibration    23          0.828              1.315              0.735
 Vibration    24          0.888              1.177              0.581
 Vibration    25          0.897              1.157              0.560
 Vibration    26          0.924              1.101              0.508
 Vibration    27          0.949              1.050              0.465

 Optimization completed.
    -- Stationary point found.
 Normal termination of Gaussian 16 at Sun Dec 13 17:00:33 2020.

 ----------------------------------------------------------------------
 # B3LYP/6-311++G(d,p) empiricaldispersion=gd3bj scf=xqc pop=npa geom=c
 heck
 ----------------------------------------------------------------------

 ---------------------------------------
 CID_18823817_JID_10962_Energie_neutraal
 ---------------------------------------
 Structure from the checkpoint file:  "JID_10962.chk"
 Charge =  0 Multiplicity = 1

 SCF Done:  E(RB3LYP) =  -882.216181095     A.U. after   15 cycles
 Normal termination of Gaussian 16 at Sun Dec 13 17:05:50 2020.

 ----------------------------------------------------------------------
 # B3LYP/6-311++G(d,p) empiricaldispersion=gd3bj scf=xqc pop=npa geom=c
 heck
 ----------------------------------------------------------------------

 -------------------------------------
 CID_18823817_JID_10962_Energie_kation
 -------------------------------------
 Structure from the checkpoint file:  "JID_10962.chk"
 Charge =  1 Multiplicity = 2

 SCF Done:  E(UB3LYP) =  -881.947802296     A.U. after   22 cycles
 Normal termination of Gaussian 16 at Sun Dec 13 17:15:55 2020.
 Gaussian 16:  ES64L-G16RevA.03 25-Dec-2016

 ----------------------------------------------------------------------
 # B3LYP/6-311++G(d,p) empiricaldispersion=gd3bj scf=xqc pop=npa geom=c
 heck
 ----------------------------------------------------------------------

 ------------------------------------
 CID_18823817_JID_10962_Energie_anion
 ------------------------------------
 Structure from the checkpoint file:  "JID_10962.chk"
 Charge = -1 Multiplicity = 2

                         Standard orientation:
 ---------------------------------------------------------------------
 Center     Atomic      Atomic             Coordinates (Angstroms)
 Number     Number       Type             X           Y           Z
 ---------------------------------------------------------------------
      1          6           0       -5.457681    1.768694   -0.000009
      2          6           0       -4.265146    0.844100    0.000014
      3          6           0       -2.973408    1.364474   -0.000025
      4          6           0       -1.881367    0.494793   -0.000080
      5          6           0       -2.085599   -0.882463   -0.000048
      6          6           0       -3.357496   -1.438289   -0.000003
      7          6           0       -4.452291   -0.567505    0.000029
      8          6           0       -5.847794   -1.137912   -0.000027
      9          8           0       -0.913676   -1.587292   -0.000007
     10          6           0        0.142729   -0.658367   -0.000004
     11          6           0        1.389851   -1.184811    0.000081
     12          6           0        2.713149   -0.594305    0.000027
     13          6           0        2.988818    0.792255    0.000006
     14          6           0        4.294131    1.256690   -0.000018
     15          6           0        5.366540    0.355494   -0.000042
     16          6           0        5.118725   -1.022258   -0.000019
     17          6           0        3.809636   -1.481867    0.000047
     18          8           0        6.625815    0.875257   -0.000062
     19          6           0       -0.433815    0.721815    0.000009
     20          8           0        0.159791    1.798476    0.000138
     21          1           0       -6.094231    1.613902   -0.880583
     22          1           0       -5.138245    2.814578   -0.000128
     23          1           0       -6.094130    1.614098    0.880676
     24          1           0       -2.804551    2.437644   -0.000046
     25          1           0       -3.497074   -2.514332    0.000031
     26          1           0       -6.414394   -0.808963   -0.880213
     27          1           0       -5.829826   -2.231043    0.000646
     28          1           0       -6.414977   -0.807842    0.879341
     29          1           0        1.387822   -2.274240    0.000122
     30          1           0        2.161745    1.492082    0.000000
     31          1           0        4.506968    2.320681    0.000007
     32          1           0        5.947841   -1.726983   -0.000044
     33          1           0        3.625246   -2.552955    0.000099
     34          1           0        7.268486    0.148618   -0.000102
 ---------------------------------------------------------------------

 SCF Done:  E(UB3LYP) =  -882.256033824     A.U. after   23 cycles

 The electronic state is 2-A.
 Alpha  occ. eigenvalues --  -19.05444 -19.03696 -18.92878 -10.11588 -10.09870
 Alpha  occ. eigenvalues --  -10.08191 -10.08119 -10.07117 -10.06936 -10.06301
 Alpha  occ. eigenvalues --  -10.06282 -10.06019 -10.05656 -10.05563 -10.05236
 Alpha  occ. eigenvalues --  -10.05117 -10.04688 -10.03837 -10.03175 -10.02815
 Alpha  occ. eigenvalues --   -0.96553  -0.95956  -0.86538  -0.74234  -0.73685
 Alpha  occ. eigenvalues --   -0.66937  -0.66159  -0.65069  -0.63384  -0.61548
 Alpha  occ. eigenvalues --   -0.58786  -0.57312  -0.53215  -0.50960  -0.49120
 Alpha  occ. eigenvalues --   -0.46729  -0.44493  -0.43506  -0.42340  -0.38430
 Alpha  occ. eigenvalues --   -0.36958  -0.35480  -0.35059  -0.33774  -0.33128
 Alpha  occ. eigenvalues --   -0.32406  -0.31956  -0.31560  -0.30904  -0.30733
 Alpha  occ. eigenvalues --   -0.30575  -0.30357  -0.28926  -0.28493  -0.26917
 Alpha  occ. eigenvalues --   -0.26003  -0.25140  -0.24920  -0.23967  -0.23904
 Alpha  occ. eigenvalues --   -0.23251  -0.22084  -0.21697  -0.21455  -0.15735
 Alpha  occ. eigenvalues --   -0.14213  -0.13383  -0.10924  -0.09516  -0.07876
 Alpha  occ. eigenvalues --    0.01239
 Alpha virt. eigenvalues --    0.06349   0.06739   0.08481   0.09053   0.09448
 Alpha virt. eigenvalues --    0.10010   0.10124   0.10664   0.10708   0.11313
 Alpha virt. eigenvalues --    0.12049   0.12143   0.12273   0.12933   0.14007

  Beta  occ. eigenvalues --  -19.05393 -19.03733 -18.92290 -10.11413 -10.09761
  Beta  occ. eigenvalues --  -10.08195 -10.07872 -10.07133 -10.06932 -10.06366
  Beta  occ. eigenvalues --  -10.06113 -10.06048 -10.05648 -10.05513 -10.05281
  Beta  occ. eigenvalues --  -10.05182 -10.04523 -10.03711 -10.03202 -10.02462
  Beta  occ. eigenvalues --   -0.96426  -0.95930  -0.85499  -0.74061  -0.73537
  Beta  occ. eigenvalues --   -0.66740  -0.65846  -0.64907  -0.63282  -0.61278
  Beta  occ. eigenvalues --   -0.58627  -0.57034  -0.52844  -0.50740  -0.49011
  Beta  occ. eigenvalues --   -0.46575  -0.44256  -0.43371  -0.42139  -0.38337
  Beta  occ. eigenvalues --   -0.36808  -0.35330  -0.34975  -0.33595  -0.32885
  Beta  occ. eigenvalues --   -0.32324  -0.31510  -0.31494  -0.30644  -0.30512
  Beta  occ. eigenvalues --   -0.30448  -0.30302  -0.28909  -0.28379  -0.26620
  Beta  occ. eigenvalues --   -0.25896  -0.24927  -0.24742  -0.23816  -0.23352
  Beta  occ. eigenvalues --   -0.22001  -0.21776  -0.21350  -0.20632  -0.14701
  Beta  occ. eigenvalues --   -0.13894  -0.12498  -0.10392  -0.09015  -0.06622
  Beta virt. eigenvalues --    0.06351   0.06725   0.06925   0.08460   0.09055
  Beta virt. eigenvalues --    0.09884   0.10113   0.10288   0.10707   0.11197
  Beta virt. eigenvalues --    0.11301   0.12138   0.12257   0.12304   0.13154

 Mulliken charges and spin densities:
               1          2
     1  C   -0.616363   0.007873
     2  C    0.321410  -0.066225
     3  C   -0.280675   0.152638
     4  C    0.571456  -0.029965
     5  C   -1.118555   0.070259
     6  C   -0.854007  -0.045998
     7  C    0.753591   0.146327
     8  C   -0.501332  -0.013129
     9  O   -0.080444  -0.002273
    10  C    0.231516  -0.030134
    11  C   -0.211006   0.288300
    12  C    1.400121  -0.058912
    13  C   -0.790778   0.093781
    14  C   -0.258728  -0.054727
    15  C   -0.684332   0.117228
    16  C   -0.101013  -0.051866
    17  C   -0.013108   0.103374
    18  O   -0.248471   0.010199
    19  C   -0.079848   0.172260
    20  O   -0.397676   0.217493
    21  H    0.123660  -0.002373
    22  H    0.157360  -0.000306
    23  H    0.123649  -0.002370
    24  H    0.114727  -0.009946
    25  H    0.094456   0.001259
    26  H    0.125730   0.009145
    27  H    0.147636   0.000406
    28  H    0.125666   0.009111
    29  H    0.127058  -0.020834
    30  H    0.185995  -0.010635
    31  H    0.178131   0.002789
    32  H    0.095789   0.002843
    33  H    0.117026  -0.005211
    34  H    0.241359  -0.000383
 Sum of Mulliken charges =  -1.00000   1.00000

 Dipole moment (field-independent basis, Debye):
    X=             -1.2116    Y=             -3.0603    Z=             -0.0003  Tot=              3.2914
 Quadrupole moment (field-independent basis, Debye-Ang):
   XX=           -157.3558   YY=           -131.3363   ZZ=           -127.3055
   XY=            -10.8286   XZ=             -0.0007   YZ=             -0.0008

 Summary of Natural Population Analysis:

                                       Natural Population
                Natural  -----------------------------------------------
    Atom  No    Charge         Core      Valence    Rydberg      Total
 -----------------------------------------------------------------------
      C    1   -0.28967      0.99965     2.28516    0.00486     3.28967
      C    2   -0.05937      0.99950     2.05195    0.00792     3.05937
      C    3   -0.03997      0.99942     2.03036    0.01020     3.03997
      C    4   -0.09714      0.99946     2.08846    0.00922     3.09714
      C    5    0.19454      0.99935     1.79397    0.01214     2.80546
      C    6   -0.14271      0.99940     2.13384    0.00947     3.14271
      C    7    0.02737      0.99952     1.96565    0.00746     2.97263
      C    8   -0.28945      0.99959     2.28532    0.00454     3.28945
      O    9   -0.26852      0.99986     3.25867    0.00999     4.26852
      C   10    0.11030      0.99940     1.87727    0.01302     2.88970
      C   11   -0.03378      0.99943     2.02478    0.00957     3.03378
      C   12   -0.05402      0.99940     2.04740    0.00722     3.05402
      C   13   -0.05015      0.99946     2.04215    0.00855     3.05015
      C   14   -0.15024      0.99955     2.14131    0.00939     3.15024
      C   15    0.18125      0.99940     1.80720    0.01215     2.81875
      C   16   -0.17037      0.99953     2.16169    0.00915     3.17037
      C   17   -0.05984      0.99957     2.05068    0.00959     3.05984
      O   18   -0.33999      0.99988     3.33380    0.00631     4.33999
      C   19    0.26484      0.99946     1.71501    0.02069     2.73516
      O   20   -0.24349      0.99987     3.23758    0.00603     4.24349
      H   21    0.09464      0.00000     0.40417    0.00120     0.40536
      H   22    0.09990      0.00000     0.39920    0.00090     0.40010
      H   23    0.09463      0.00000     0.40417    0.00120     0.40537
      H   24    0.10180      0.00000     0.39758    0.00062     0.39820
      H   25    0.10059      0.00000     0.39881    0.00060     0.39941
      H   26    0.09859      0.00000     0.40008    0.00133     0.40141
      H   27    0.09709      0.00000     0.40170    0.00122     0.40291
      H   28    0.09858      0.00000     0.40009    0.00133     0.40142
      H   29    0.09029      0.00000     0.40693    0.00278     0.40971
      H   30    0.12659      0.00000     0.37110    0.00231     0.37341
      H   31    0.10066      0.00000     0.39827    0.00108     0.39934
      H   32    0.09029      0.00000     0.40841    0.00130     0.40971
      H   33    0.09168      0.00000     0.40677    0.00155     0.40832
      H   34    0.22668      0.00000     0.27085    0.00247     0.27332
 =======================================================================
   * Total *    0.00158     19.99069    49.80036    0.20738    69.99842

 Normal termination of Gaussian 16 at Sun Dec 13 17:26:28 2020.
