 Gaussian 16, Revision A.03,

 -----------------------------------------------------------
 # opt freq B3LYP/6-31G(d) empiricaldispersion=gd3bj scf=xqc
 -----------------------------------------------------------

 ------------------------------
 CID_20735123_JID_1032_neutraal
 ------------------------------
 Symbolic Z-matrix:
 Charge =  0 Multiplicity = 1

 SCF Done:  E(RB3LYP) =  -459.712498348     A.U. after   14 cycles
 SCF Done:  E(RB3LYP) =  -459.715363882     A.U. after   12 cycles
 SCF Done:  E(RB3LYP) =  -459.715670226     A.U. after   12 cycles
 SCF Done:  E(RB3LYP) =  -459.715771467     A.U. after   12 cycles
 SCF Done:  E(RB3LYP) =  -459.715826028     A.U. after   10 cycles
 SCF Done:  E(RB3LYP) =  -459.715852463     A.U. after   11 cycles
 SCF Done:  E(RB3LYP) =  -459.715867720     A.U. after   10 cycles
 SCF Done:  E(RB3LYP) =  -459.715907615     A.U. after   11 cycles
 SCF Done:  E(RB3LYP) =  -459.715973482     A.U. after   12 cycles
 SCF Done:  E(RB3LYP) =  -459.715936966     A.U. after   12 cycles
 SCF Done:  E(RB3LYP) =  -459.716312553     A.U. after   10 cycles
 SCF Done:  E(RB3LYP) =  -459.716315559     A.U. after    9 cycles
 SCF Done:  E(RB3LYP) =  -459.716317446     A.U. after   10 cycles
 SCF Done:  E(RB3LYP) =  -459.716317734     A.U. after    8 cycles
 SCF Done:  E(RB3LYP) =  -459.716317782     A.U. after    7 cycles
 Optimization completed.
    -- Stationary point found.

 1\1\GINC-NODE311\FOpt\RB3LYP\6-31G(d)\C9H12N2\VSC10255\08-Dec-2020\0\\
 # opt freq B3LYP/6-31G(d) empiricaldispersion=gd3bj scf=xqc\\CID_20735
 123_JID_1032_neutraal\\0,1\C,1.2372687451,0.0917201762,0.152546915\C,0
 .3750214569,-0.1127158105,1.3849214819\N,-0.641895087,0.600648729,1.70
 2371032\C,-1.0594504738,1.7093298315,0.8603077738\C,0.7457363465,-1.23
 15052968,2.2903702299\C,1.8473753274,-2.0655218866,2.0482715216\C,2.17
 74460726,-3.104277163,2.9125392164\C,1.4078346626,-3.3490418094,4.0596
 004044\C,0.2996920163,-2.5173137973,4.3096908752\C,-0.0187661682,-1.48

 Normal termination of Gaussian 16 at Tue Dec  8 19:16:17 2020.

 --------------------------------------------------------------------
 #N Geom=AllCheck Guess=TCheck SCRF=Check GenChk RB3LYP/6-31G(d) Freq
 --------------------------------------------------------------------

 Structure from the checkpoint file:  "JID_1032.chk"
 ------------------------------
 CID_20735123_JID_1032_neutraal
 ------------------------------
 Charge =  0 Multiplicity = 1

 SCF Done:  E(RB3LYP) =  -459.716317782     A.U. after    1 cycles

  Exact polarizability: 182.277  -5.921 110.124   0.461  -0.117  49.440
 Approx polarizability: 261.992 -17.290 186.600  -1.231  -0.338  74.577

                      1                      2                      3
                      A                      A                      A
 Frequencies --     41.8196                79.2700                91.5831
 Red. masses --      2.7768                 1.1847                 2.8999
 Frc consts  --      0.0029                 0.0044                 0.0143
 IR Inten    --      0.8153                 0.9528                 3.7612

                      4                      5                      6
                      A                      A                      A
 Frequencies --    143.1486               164.4161               214.0612
 Red. masses --      1.0925                 3.6874                 3.3433
 Frc consts  --      0.0132                 0.0587                 0.0903
 IR Inten    --      0.9462                 3.7583                 1.2900

                      7                      8                      9
                      A                      A                      A
 Frequencies --    316.4854               326.6390               332.5669
 Red. masses --      1.0948                 3.1124                 4.1120
 Frc consts  --      0.0646                 0.1957                 0.2680
 IR Inten    --     17.5567                 2.5429                 8.9243

                     10                     11                     12
                      A                      A                      A
 Frequencies --    351.0468               382.3655               419.0382
 Red. masses --      3.9882                 3.0850                 3.1757
 Frc consts  --      0.2896                 0.2657                 0.3285
 IR Inten    --      6.0067                 0.0879                 0.1511

                     13                     14                     15
                      A                      A                      A
 Frequencies --    464.7176               499.9214               575.3211
 Red. masses --      3.3668                 2.4591                 2.2851
 Frc consts  --      0.4284                 0.3621                 0.4456
 IR Inten    --      1.6239                43.7564               188.0055

                     16                     17                     18
                      A                      A                      A
 Frequencies --    587.2058               609.9169               658.6869
 Red. masses --      3.1161                 1.6779                 6.8777
 Frc consts  --      0.6331                 0.3678                 1.7581
 IR Inten    --     42.9948               222.2482                 0.5411

                     19                     20                     21
                      A                      A                      A
 Frequencies --    723.0538               741.7974               820.6942
 Red. masses --      3.5101                 4.0876                 1.3238
 Frc consts  --      1.0812                 1.3252                 0.5254
 IR Inten    --      4.2183                10.3034                11.4863

                     22                     23                     24
                      A                      A                      A
 Frequencies --    842.1291               852.8486               932.8209
 Red. masses --      1.7543                 3.7734                 2.6513
 Frc consts  --      0.7330                 1.6171                 1.3593
 IR Inten    --     35.5078                12.8046                 0.5599

                     25                     26                     27
                      A                      A                      A
 Frequencies --    940.9067               986.9573              1031.9491
 Red. masses --      1.3014                 1.2941                 2.8027
 Frc consts  --      0.6788                 0.7427                 1.7585
 IR Inten    --      0.1729                 0.8969                 0.7818

                     28                     29                     30
                      A                      A                      A
 Frequencies --   1052.9576              1065.8585              1102.5465
 Red. masses --      1.6074                 2.6950                 1.4604
 Frc consts  --      1.0500                 1.8039                 1.0460
 IR Inten    --      0.4818                14.1779                 0.7066

                     31                     32                     33
                      A                      A                      A
 Frequencies --   1110.4840              1113.3199              1160.8008
 Red. masses --      1.4009                 2.8860                 1.2976
 Frc consts  --      1.0178                 2.1076                 1.0302
 IR Inten    --      0.5351                 3.7968                27.1513

                     34                     35                     36
                      A                      A                      A
 Frequencies --   1174.3141              1217.9847              1329.1783
 Red. masses --      1.3166                 1.1439                 2.5714
 Frc consts  --      1.0697                 0.9998                 2.6766
 IR Inten    --     20.8784                58.2673                 4.0306

                     37                     38                     39
                      A                      A                      A
 Frequencies --   1331.2377              1349.1569              1384.2054
 Red. masses --      4.5681                 1.7029                 3.4250
 Frc consts  --      4.7698                 1.8262                 3.8665
 IR Inten    --    156.4927                16.9109                 7.5461

                     40                     41                     42
                      A                      A                      A
 Frequencies --   1424.2316              1456.3693              1486.4871
 Red. masses --      1.2685                 1.1941                 2.9419
 Frc consts  --      1.5160                 1.4922                 3.8301
 IR Inten    --     29.3937                54.5762                14.8665

                     43                     44                     45
                      A                      A                      A
 Frequencies --   1504.4163              1513.2644              1532.0096
 Red. masses --      1.0707                 1.0470                 1.0563
 Frc consts  --      1.4277                 1.4127                 1.4606
 IR Inten    --     12.4437                 9.3304                 1.0155

                     46                     47                     48
                      A                      A                      A
 Frequencies --   1545.2511              1568.7692              1629.9075
 Red. masses --      1.0455                 2.7009                 5.8287
 Frc consts  --      1.4708                 3.9163                 9.1232
 IR Inten    --      0.9585                37.0263                16.0060

                     49                     50                     51
                      A                      A                      A
 Frequencies --   1671.2670              1694.5424              1720.9961
 Red. masses --      3.4304                 1.3411                 7.7929
 Frc consts  --      5.6452                 2.2689                13.5990
 IR Inten    --    120.8128               202.5602                68.8337

                     52                     53                     54
                      A                      A                      A
 Frequencies --   3004.1839              3056.1158              3056.8681
 Red. masses --      1.0393                 1.1024                 1.0413
 Frc consts  --      5.5262                 6.0663                 5.7329
 IR Inten    --     89.9132                42.3927                 8.1259

                     55                     56                     57
                      A                      A                      A
 Frequencies --   3108.9422              3112.4688              3169.9472
 Red. masses --      1.0999                 1.0960                 1.0965
 Frc consts  --      6.2636                 6.2557                 6.4919
 IR Inten    --     11.0211                46.6902                26.1795

                     58                     59                     60
                      A                      A                      A
 Frequencies --   3174.0132              3175.6570              3211.9277
 Red. masses --      1.0895                 1.0887                 1.0911
 Frc consts  --      6.4670                 6.4687                 6.6323
 IR Inten    --     22.7596                20.6748                15.3267

                     61                     62                     63
                      A                      A                      A
 Frequencies --   3230.6437              3554.6913              3654.8273
 Red. masses --      1.0914                 1.0476                 1.0986
 Frc consts  --      6.7111                 7.7993                 8.6459
 IR Inten    --      3.0133                20.5246                 9.3022

 - Thermochemistry -
 -------------------
 Temperature   298.150 Kelvin.  Pressure   1.00000 Atm.
 Atom     1 has atomic number  6 and mass  12.00000

 Molecular mass:   148.10005 amu.
 Principal axes and moments of inertia in atomic units:
                           1         2         3
     Eigenvalues --   574.781963138.252533688.89886
           X            0.99998   0.00564   0.00270
           Y           -0.00565   0.99998   0.00081
           Z           -0.00270  -0.00082   1.00000
 This molecule is an asymmetric top.
 Rotational symmetry number  1.
 Warning -- assumption of classical behavior for rotation
           may cause significant error
 Rotational temperatures (Kelvin)      0.15069     0.02760     0.02348
 Rotational constants (GHZ):           3.13987     0.57508     0.48924
 Zero-point vibrational energy     513085.6 (Joules/Mol)
                                  122.63040 (Kcal/Mol)
 Warning -- explicit consideration of  17 degrees of freedom as
           vibrations may cause significant error
 Vibrational temperatures:     60.17   114.05   131.77   205.96   236.56
          (Kelvin)            307.99   455.35   469.96   478.49   505.08
                              550.14   602.90   668.63   719.28   827.76
                              844.86   877.53   947.70  1040.31  1067.28
                             1180.80  1211.64  1227.06  1342.12  1353.75
                             1420.01  1484.74  1514.97  1533.53  1586.32
                             1597.74  1601.82  1670.13  1689.58  1752.41
                             1912.39  1915.35  1941.14  1991.56  2049.15
                             2095.39  2138.72  2164.52  2177.25  2204.22
                             2223.27  2257.11  2345.07  2404.58  2438.07
                             2476.13  4322.35  4397.07  4398.15  4473.07
                             4478.15  4560.85  4566.70  4569.06  4621.25
                             4648.18  5114.41  5258.48

 Zero-point correction=                           0.195424 (Hartree/Particle)
 Thermal correction to Energy=                    0.206537
 Thermal correction to Enthalpy=                  0.207481
 Thermal correction to Gibbs Free Energy=         0.158347
 Sum of electronic and zero-point Energies=           -459.520894
 Sum of electronic and thermal Energies=              -459.509781
 Sum of electronic and thermal Enthalpies=            -459.508837
 Sum of electronic and thermal Free Energies=         -459.557971

                     E (Thermal)             CV                S
                      KCal/Mol        Cal/Mol-Kelvin    Cal/Mol-Kelvin
 Total                  129.604             41.810            103.411
 Electronic               0.000              0.000              0.000
 Translational            0.889              2.981             40.889
 Rotational               0.889              2.981             30.277
 Vibrational            127.826             35.849             32.246
 Vibration     1          0.594              1.980              5.171
 Vibration     2          0.600              1.963              3.909
 Vibration     3          0.602              1.955              3.626
 Vibration     4          0.616              1.910              2.761
 Vibration     5          0.623              1.886              2.498
 Vibration     6          0.644              1.820              2.009
 Vibration     7          0.703              1.642              1.328
 Vibration     8          0.710              1.622              1.277
 Vibration     9          0.715              1.610              1.248
 Vibration    10          0.728              1.573              1.161
 Vibration    11          0.752              1.508              1.030
 Vibration    12          0.782              1.429              0.895
 Vibration    13          0.822              1.328              0.752
 Vibration    14          0.855              1.250              0.658
 Vibration    15          0.932              1.085              0.494
 Vibration    16          0.944              1.059              0.472
 Vibration    17          0.969              1.011              0.433

 Optimization completed.
    -- Stationary point found.

 1\1\GINC-NODE311\Freq\RB3LYP\6-31G(d)\C9H12N2\VSC10255\08-Dec-2020\0\\
 #N Geom=AllCheck Guess=TCheck SCRF=Check GenChk RB3LYP/6-31G(d) Freq\\
 CID_20735123_JID_1032_neutraal\\0,1\C,1.2372687451,0.0917201762,0.1525
 46915\C,0.3750214569,-0.1127158105,1.3849214819\N,-0.641895087,0.60064
 8729,1.702371032\C,-1.0594504738,1.7093298315,0.8603077738\C,0.7457363
 465,-1.2315052968,2.2903702299\C,1.8473753274,-2.0655218866,2.04827152
 16\C,2.1774460726,-3.104277163,2.9125392164\C,1.4078346626,-3.34904180
 94,4.0596004044\C,0.2996920163,-2.5173137973,4.3096908752\C,-0.0187661

 Normal termination of Gaussian 16 at Tue Dec  8 19:20:12 2020.

 ----------------------------------------------------------------------
 # B3LYP/6-311++G(d,p) empiricaldispersion=gd3bj scf=xqc pop=npa geom=c
 heck
 ----------------------------------------------------------------------

 --------------------------------------
 CID_20735123_JID_1032_Energie_neutraal
 --------------------------------------
 Structure from the checkpoint file:  "JID_1032.chk"
 Charge =  0 Multiplicity = 1

 SCF Done:  E(RB3LYP) =  -459.845832118     A.U. after   14 cycles
 Normal termination of Gaussian 16 at Tue Dec  8 19:21:35 2020.

 ----------------------------------------------------------------------
 # B3LYP/6-311++G(d,p) empiricaldispersion=gd3bj scf=xqc pop=npa geom=c
 heck
 ----------------------------------------------------------------------

 ------------------------------------
 CID_20735123_JID_1032_Energie_kation
 ------------------------------------
 Structure from the checkpoint file:  "JID_1032.chk"
 Charge =  1 Multiplicity = 2

 SCF Done:  E(UB3LYP) =  -459.572746670     A.U. after   24 cycles
 Normal termination of Gaussian 16 at Tue Dec  8 19:24:39 2020.
 Gaussian 16:  ES64L-G16RevA.03 25-Dec-2016

 -----------------------------------
 CID_20735123_JID_1032_Energie_anion
 -----------------------------------
 Structure from the checkpoint file:  "JID_1032.chk"
 Charge = -1 Multiplicity = 2

                         Standard orientation:
 ---------------------------------------------------------------------
 Center     Atomic      Atomic             Coordinates (Angstroms)
 Number     Number       Type             X           Y           Z
 ---------------------------------------------------------------------
      1          6           0        2.325260    1.592216    0.006772
      2          6           0        1.717545    0.201300   -0.000044
      3          7           0        2.381392   -0.895519   -0.008860
      4          6           0        3.834786   -0.880328   -0.012362
      5          6           0        0.233943    0.112619    0.004322
      6          6           0       -0.590371    1.247644   -0.001120
      7          6           0       -1.977194    1.139755   -0.001023
      8          6           0       -2.594192   -0.120090    0.007007
      9          6           0       -1.774283   -1.264644    0.013537
     10          6           0       -0.395079   -1.145542    0.011881
     11          7           0       -3.981586   -0.239075    0.064530
     12          1           0        3.415059    1.565436    0.015464
     13          1           0        1.991687    2.154914    0.886303
     14          1           0        2.006305    2.157356   -0.876797
     15          1           0        4.250241   -0.373638   -0.895836
     16          1           0        4.254048   -0.389994    0.878515
     17          1           0        4.197018   -1.912603   -0.022532
     18          1           0       -0.154543    2.241201   -0.009447
     19          1           0       -2.590928    2.037553   -0.002280
     20          1           0       -2.235124   -2.250001    0.024115
     21          1           0        0.235126   -2.027715    0.014001
     22          1           0       -4.352449   -1.113848   -0.284345
     23          1           0       -4.497571    0.555924   -0.290676
 ---------------------------------------------------------------------

 SCF Done:  E(UB3LYP) =  -459.834140362     A.U. after   33 cycles
 SCF Done:  E(UB3LYP) =  -459.834140362     a.u. after    1 cycles

 The electronic state is 2-A.
 Alpha  occ. eigenvalues --  -14.19821 -14.16784 -10.09233 -10.09123 -10.08058
 Alpha  occ. eigenvalues --  -10.06175 -10.05544 -10.04925 -10.04862 -10.04798
 Alpha  occ. eigenvalues --  -10.04690  -0.80251  -0.79741  -0.72027  -0.64515
 Alpha  occ. eigenvalues --   -0.62784  -0.60153  -0.57524  -0.49382  -0.49014
 Alpha  occ. eigenvalues --   -0.42517  -0.39990  -0.39296  -0.36244  -0.33942
 Alpha  occ. eigenvalues --   -0.33534  -0.32893  -0.30482  -0.30310  -0.29992
 Alpha  occ. eigenvalues --   -0.29319  -0.27732  -0.26739  -0.23888  -0.22173
 Alpha  occ. eigenvalues --   -0.21263  -0.16633  -0.13718  -0.12609  -0.08770
 Alpha  occ. eigenvalues --    0.04760
 Alpha virt. eigenvalues --    0.06457   0.07118   0.08097   0.08966   0.09544
 Alpha virt. eigenvalues --    0.09982   0.10481   0.11318   0.11975   0.12505
 Alpha virt. eigenvalues --    0.12955   0.14526   0.14635   0.15101   0.15893

  Beta  occ. eigenvalues --  -14.19734 -14.16626 -10.09152 -10.09002 -10.08057
  Beta  occ. eigenvalues --  -10.06166 -10.05501 -10.04941 -10.04876 -10.04754
  Beta  occ. eigenvalues --  -10.04660  -0.80092  -0.79495  -0.71927  -0.64363
  Beta  occ. eigenvalues --   -0.62713  -0.60057  -0.57439  -0.49308  -0.48805
  Beta  occ. eigenvalues --   -0.42396  -0.39824  -0.39210  -0.36126  -0.33840
  Beta  occ. eigenvalues --   -0.33302  -0.32836  -0.30369  -0.30274  -0.29912
  Beta  occ. eigenvalues --   -0.29247  -0.27691  -0.26473  -0.23799  -0.22123
  Beta  occ. eigenvalues --   -0.20861  -0.16132  -0.13564  -0.12421  -0.08362
  Beta virt. eigenvalues --    0.06741   0.08000   0.08229   0.08528   0.09706
  Beta virt. eigenvalues --    0.09953   0.10035   0.10541   0.11775   0.12395
  Beta virt. eigenvalues --    0.12590   0.13008   0.14804   0.15209   0.15445

 Mulliken charges and spin densities:
               1          2
     1  C    0.279730  -1.021002
     2  C    1.185934  -0.844124
     3  N   -0.138901   0.154720
     4  C   -0.051548  -0.329968
     5  C    0.127144   0.418291
     6  C   -1.251155   0.824561
     7  C    0.243705  -0.757222
     8  C    0.808296  -0.997860
     9  C   -1.548075   1.208425
    10  C    0.786048  -0.754488
    11  N   -0.268303  -0.031041
    12  H   -0.131080   0.277089
    13  H    0.128462   0.014072
    14  H   -0.099700   0.256899
    15  H    0.095392   0.039697
    16  H   -0.076838   0.220528
    17  H    0.087944   0.032950
    18  H   -0.011342   0.145617
    19  H   -0.484547   0.629566
    20  H   -0.149680   0.295672
    21  H    0.180288   0.009430
    22  H   -0.412858   0.660141
    23  H   -0.298917   0.548047
 Sum of Mulliken charges =  -1.00000   1.00000

 Dipole moment (field-independent basis, Debye):
    X=              6.6464    Y=             -0.0124    Z=              1.1665  Tot=              6.7480
 Quadrupole moment (field-independent basis, Debye-Ang):
   XX=           -150.6036   YY=            -93.2658   ZZ=            -87.2039
   XY=              0.0671   XZ=             -5.6276   YZ=              1.7276

 Summary of Natural Population Analysis:

                                       Natural Population
                Natural  -----------------------------------------------
    Atom  No    Charge         Core      Valence    Rydberg      Total
 -----------------------------------------------------------------------
      C    1   -0.32540      0.99964     2.32008    0.00568     3.32540
      C    2    0.15414      0.99955     1.83104    0.01526     2.84586
      N    3   -0.23099      0.99964     2.72035    0.01100     3.73099
      C    4   -0.19375      0.99964     2.18652    0.00758     3.19375
      C    5   -0.06788      0.99947     2.05777    0.01064     3.06788
      C    6   -0.07764      0.99954     2.06960    0.00850     3.07764
      C    7   -0.13650      0.99953     2.12645    0.01052     3.13650
      C    8    0.10739      0.99949     1.88148    0.01164     2.89261
      C    9   -0.13402      0.99952     2.12470    0.00981     3.13402
      C   10   -0.06283      0.99953     2.05390    0.00939     3.06283
      N   11   -0.39227      0.99972     2.88165    0.01090     3.89227
      H   12    0.10268      0.00000     0.39623    0.00109     0.39732
      H   13    0.10614      0.00000     0.39294    0.00093     0.39386
      H   14    0.10975      0.00000     0.38891    0.00133     0.39025
      H   15    0.08561      0.00000     0.41284    0.00155     0.41439
      H   16    0.08755      0.00000     0.41033    0.00211     0.41245
      H   17    0.08952      0.00000     0.40911    0.00137     0.41048
      H   18    0.09696      0.00000     0.40191    0.00113     0.40304
      H   19    0.09865      0.00000     0.40024    0.00110     0.40135
      H   20    0.09683      0.00000     0.40227    0.00090     0.40317
      H   21    0.10971      0.00000     0.38889    0.00140     0.39029
      H   22    0.18735      0.00000     0.30630    0.00635     0.31265
      H   23    0.18897      0.00000     0.30200    0.00903     0.31103
 =======================================================================
   * Total *    0.00000     10.99527    28.86552    0.13921    40.00000

 Normal termination of Gaussian 16 at Tue Dec  8 19:28:55 2020.
