 Gaussian 16, Revision A.03,

 -----------------------------------------------------------
 # opt freq B3LYP/6-31G(d) empiricaldispersion=gd3bj scf=xqc
 -----------------------------------------------------------

 ------------------------------
 CID_11019239_JID_2316_neutraal
 ------------------------------
 Symbolic Z-matrix:
 Charge =  0 Multiplicity = 1

 SCF Done:  E(RB3LYP) =  -486.597252321     A.U. after   13 cycles
 SCF Done:  E(RB3LYP) =  -486.599490904     A.U. after   12 cycles
 SCF Done:  E(RB3LYP) =  -486.596012176     A.U. after   12 cycles
 SCF Done:  E(RB3LYP) =  -486.596503972     A.U. after   11 cycles
 SCF Done:  E(RB3LYP) =  -486.601374483     A.U. after    9 cycles
 SCF Done:  E(RB3LYP) =  -486.602350790     A.U. after   12 cycles
 SCF Done:  E(RB3LYP) =  -486.602698017     A.U. after   11 cycles
 SCF Done:  E(RB3LYP) =  -486.603375430     A.U. after   10 cycles
 SCF Done:  E(RB3LYP) =  -486.603692167     A.U. after   12 cycles
 SCF Done:  E(RB3LYP) =  -486.603860136     A.U. after   11 cycles
 SCF Done:  E(RB3LYP) =  -486.603979478     A.U. after    9 cycles
 SCF Done:  E(RB3LYP) =  -486.603988428     A.U. after    9 cycles
 SCF Done:  E(RB3LYP) =  -486.603993934     A.U. after    8 cycles
 SCF Done:  E(RB3LYP) =  -486.603995394     A.U. after    8 cycles
 SCF Done:  E(RB3LYP) =  -486.603996396     A.U. after    8 cycles
 SCF Done:  E(RB3LYP) =  -486.603996501     A.U. after    7 cycles
 Optimization completed.
    -- Stationary point found.
 Normal termination of Gaussian 16 at Wed Dec  9 17:06:11 2020.

 --------------------------------------------------------------------
 #N Geom=AllCheck Guess=TCheck SCRF=Check GenChk RB3LYP/6-31G(d) Freq
 --------------------------------------------------------------------

 Structure from the checkpoint file:  "JID_2316.chk"
 ------------------------------
 CID_11019239_JID_2316_neutraal
 ------------------------------
 Charge =  0 Multiplicity = 1

 SCF Done:  E(RB3LYP) =  -486.603996501     A.U. after    1 cycles

  Exact polarizability: 149.239   4.309 108.227   2.515   1.795 105.334
 Approx polarizability: 189.319   9.040 154.470   1.630   3.610 158.198

                      1                      2                      3
                      A                      A                      A
 Frequencies --     62.4321                73.2038               102.2960
 Red. masses --      2.7529                 2.6890                 2.7203
 Frc consts  --      0.0063                 0.0085                 0.0168
 IR Inten    --      0.0338                 0.7487                 0.1438

                      4                      5                      6
                      A                      A                      A
 Frequencies --    156.3036               181.6933               196.6323
 Red. masses --      3.1142                 2.7903                 1.4901
 Frc consts  --      0.0448                 0.0543                 0.0339
 IR Inten    --      0.2336                 0.4978                 0.3370

                      7                      8                      9
                      A                      A                      A
 Frequencies --    225.2607               249.9467               259.3891
 Red. masses --      1.4820                 1.1674                 1.6873
 Frc consts  --      0.0443                 0.0430                 0.0669
 IR Inten    --      0.3306                 0.1159                 0.0389

                     10                     11                     12
                      A                      A                      A
 Frequencies --    278.8476               290.0784               313.1308
 Red. masses --      1.1541                 2.1142                 1.0778
 Frc consts  --      0.0529                 0.1048                 0.0623
 IR Inten    --      0.0513                 0.1650                 0.2288

                     13                     14                     15
                      A                      A                      A
 Frequencies --    332.8599               362.4147               385.6009
 Red. masses --      2.3465                 2.3511                 2.1492
 Frc consts  --      0.1532                 0.1819                 0.1883
 IR Inten    --      1.0038                 0.6619                 0.4381

                     16                     17                     18
                      A                      A                      A
 Frequencies --    400.9615               425.8390               452.8193
 Red. masses --      2.2412                 2.1994                 2.4087
 Frc consts  --      0.2123                 0.2350                 0.2910
 IR Inten    --      0.0394                 1.6646                 0.9478

                     19                     20                     21
                      A                      A                      A
 Frequencies --    536.4596               563.4715               614.6693
 Red. masses --      4.2851                 1.8887                 3.5155
 Frc consts  --      0.7266                 0.3533                 0.7826
 IR Inten    --      1.0357                 1.8185                 3.8399

                     22                     23                     24
                      A                      A                      A
 Frequencies --    688.0986               711.0222               769.0146
 Red. masses --      2.9668                 3.9485                 3.1776
 Frc consts  --      0.8276                 1.1761                 1.1072
 IR Inten    --      7.2945                 0.9478                 7.3734

                     25                     26                     27
                      A                      A                      A
 Frequencies --    831.7798               861.3242               875.2377
 Red. masses --      1.7722                 2.1097                 2.1151
 Frc consts  --      0.7224                 0.9222                 0.9546
 IR Inten    --      2.7668                 0.6487                 1.9005

                     28                     29                     30
                      A                      A                      A
 Frequencies --    893.5673               916.4405               926.4007
 Red. masses --      1.9377                 1.6426                 1.7819
 Frc consts  --      0.9116                 0.8128                 0.9010
 IR Inten    --      5.9076                 1.1124                 1.7642

                     31                     32                     33
                      A                      A                      A
 Frequencies --    930.6424               939.0793               951.6784
 Red. masses --      2.0136                 1.6218                 1.9385
 Frc consts  --      1.0275                 0.8426                 1.0344
 IR Inten    --      1.2558                 2.1235                 2.1326

                     34                     35                     36
                      A                      A                      A
 Frequencies --    965.5359               973.6126              1012.2487
 Red. masses --      1.9447                 1.2209                 1.6143
 Frc consts  --      1.0681                 0.6819                 0.9745
 IR Inten    --     17.1068                 0.5363                 3.3993

                     37                     38                     39
                      A                      A                      A
 Frequencies --   1048.0940              1051.8327              1064.3792
 Red. masses --      1.5127                 1.9172                 1.3908
 Frc consts  --      0.9790                 1.2497                 0.9283
 IR Inten    --      2.1132                 0.4199                 1.3917

                     40                     41                     42
                      A                      A                      A
 Frequencies --   1065.3775              1082.3023              1150.9928
 Red. masses --      1.3819                 1.5612                 1.6556
 Frc consts  --      0.9241                 1.0775                 1.2923
 IR Inten    --      0.8875                 2.3209                 2.8774

                     43                     44                     45
                      A                      A                      A
 Frequencies --   1190.2188              1224.5711              1248.3397
 Red. masses --      2.3071                 1.9224                 2.3510
 Frc consts  --      1.9256                 1.6985                 2.1586
 IR Inten    --      6.5630                 1.2579                34.9594

                     46                     47                     48
                      A                      A                      A
 Frequencies --   1255.4485              1260.1256              1267.5949
 Red. masses --      1.8884                 2.4663                 2.7591
 Frc consts  --      1.7536                 2.3074                 2.6120
 IR Inten    --     12.9323                23.1751                12.1238

                     49                     50                     51
                      A                      A                      A
 Frequencies --   1284.6458              1286.2750              1336.5673
 Red. masses --      1.4494                 1.4179                 1.3458
 Frc consts  --      1.4093                 1.3822                 1.4165
 IR Inten    --      0.4602                 0.7117                 0.2207

                     52                     53                     54
                      A                      A                      A
 Frequencies --   1360.2720              1369.1709              1373.8609
 Red. masses --      1.3103                 1.3473                 1.4551
 Frc consts  --      1.4285                 1.4881                 1.6181
 IR Inten    --      0.5769                 0.3339                 0.7450

                     55                     56                     57
                      A                      A                      A
 Frequencies --   1420.2681              1421.8754              1434.2212
 Red. masses --      1.2325                 1.2444                 1.2032
 Frc consts  --      1.4648                 1.4823                 1.4582
 IR Inten    --      6.7268                 4.9024                 3.8010

                     58                     59                     60
                      A                      A                      A
 Frequencies --   1450.6334              1494.7017              1503.7608
 Red. masses --      1.2184                 1.1316                 1.0525
 Frc consts  --      1.5106                 1.4895                 1.4022
 IR Inten    --      4.6738                10.0239                 0.2975

                     61                     62                     63
                      A                      A                      A
 Frequencies --   1513.1495              1515.4383              1516.9153
 Red. masses --      1.0518                 1.0766                 1.0510
 Frc consts  --      1.4188                 1.4567                 1.4249
 IR Inten    --      1.5850                 0.5153                 0.0715

                     64                     65                     66
                      A                      A                      A
 Frequencies --   1521.4222              1524.0830              1526.7418
 Red. masses --      1.0778                 1.0710                 1.0586
 Frc consts  --      1.4699                 1.4658                 1.4538
 IR Inten    --      3.2205                 1.2745                 1.5096

                     67                     68                     69
                      A                      A                      A
 Frequencies --   1530.9557              1535.0753              1539.8913
 Red. masses --      1.0587                 1.0634                 1.0591
 Frc consts  --      1.4621                 1.4764                 1.4797
 IR Inten    --      4.0039                 1.0636                 2.9457

                     70                     71                     72
                      A                      A                      A
 Frequencies --   1545.9462              1553.3845              1760.2501
 Red. masses --      1.0960                 1.0590                11.9631
 Frc consts  --      1.5433                 1.5056                21.8395
 IR Inten    --      1.5535                 8.8237               112.1071

                     73                     74                     75
                      A                      A                      A
 Frequencies --   3010.8204              3039.3763              3045.7113
 Red. masses --      1.0835                 1.0663                 1.0668
 Frc consts  --      5.7870                 5.8035                 5.8305
 IR Inten    --     48.2672                33.1677                22.4880

                     76                     77                     78
                      A                      A                      A
 Frequencies --   3049.5568              3050.8439              3052.0814
 Red. masses --      1.0356                 1.0497                 1.0545
 Frc consts  --      5.6746                 5.7564                 5.7873
 IR Inten    --     21.4698                 7.8778                57.0184

                     79                     80                     81
                      A                      A                      A
 Frequencies --   3056.1638              3063.1432              3065.2171
 Red. masses --      1.0374                 1.0421                 1.0700
 Frc consts  --      5.7090                 5.7607                 5.9233
 IR Inten    --     26.7688                14.5923                30.8640

                     82                     83                     84
                      A                      A                      A
 Frequencies --   3093.6223              3100.1182              3106.5568
 Red. masses --      1.0980                 1.0953                 1.1033
 Frc consts  --      6.1916                 6.2020                 6.2735
 IR Inten    --     35.4729                42.0096                44.5847

                     85                     86                     87
                      A                      A                      A
 Frequencies --   3110.3036              3113.1546              3120.3386
 Red. masses --      1.1018                 1.1011                 1.1017
 Frc consts  --      6.2802                 6.2878                 6.3203
 IR Inten    --     40.0807                 3.8518                40.7146

                     88                     89                     90
                      A                      A                      A
 Frequencies --   3127.1755              3134.7434              3138.9619
 Red. masses --      1.1013                 1.1028                 1.1020
 Frc consts  --      6.3454                 6.3851                 6.3975
 IR Inten    --     58.4554                20.7686                46.4510

                     91                     92                     93
                      A                      A                      A
 Frequencies --   3155.4189              3158.8813              3187.6243
 Red. masses --      1.0929                 1.0968                 1.0941
 Frc consts  --      6.4112                 6.4482                 6.5503
 IR Inten    --     11.8538                16.4479                16.3719

 - Thermochemistry -
 -------------------
 Temperature   298.150 Kelvin.  Pressure   1.00000 Atm.
 Atom     1 has atomic number  6 and mass  12.00000

 Molecular mass:   167.16740 amu.
 Principal axes and moments of inertia in atomic units:
                           1         2         3
     Eigenvalues --  1016.312063384.306253571.51947
           X            0.99998   0.00557   0.00434
           Y           -0.00535   0.99881  -0.04856
           Z           -0.00460   0.04854   0.99881
 This molecule is an asymmetric top.
 Rotational symmetry number  1.
 Warning -- assumption of classical behavior for rotation
           may cause significant error
 Rotational temperatures (Kelvin)      0.08522     0.02559     0.02425
 Rotational constants (GHZ):           1.77577     0.53327     0.50531
 Zero-point vibrational energy     801011.0 (Joules/Mol)
                                  191.44623 (Kcal/Mol)
 Warning -- explicit consideration of  21 degrees of freedom as
           vibrations may cause significant error
 Vibrational temperatures:     89.83   105.32   147.18   224.89   261.42
          (Kelvin)            282.91   324.10   359.62   373.20   401.20
                              417.36   450.53   478.91   521.43   554.79
                              576.89   612.69   651.51   771.85   810.71
                              884.37   990.02  1023.00  1106.44  1196.75
                             1239.25  1259.27  1285.64  1318.55  1332.88
                             1338.99  1351.13  1369.25  1389.19  1400.81
                             1456.40  1507.97  1513.35  1531.40  1532.84
                             1557.19  1656.02  1712.46  1761.88  1796.08
                             1806.31  1813.04  1823.79  1848.32  1850.66
                             1923.02  1957.13  1969.93  1976.68  2043.45
                             2045.76  2063.52  2087.14  2150.54  2163.58
                             2177.08  2180.38  2182.50  2188.99  2192.82
                             2196.64  2202.70  2208.63  2215.56  2224.27
                             2234.97  2532.61  4331.90  4372.98  4382.10
                             4387.63  4389.48  4391.26  4397.14  4407.18
                             4410.16  4451.03  4460.38  4469.64  4475.03
                             4479.14  4489.47  4499.31  4510.20  4516.27
                             4539.94  4544.93  4586.28

 Zero-point correction=                           0.305089 (Hartree/Particle)
 Thermal correction to Energy=                    0.318554
 Thermal correction to Enthalpy=                  0.319498
 Thermal correction to Gibbs Free Energy=         0.266464
 Sum of electronic and zero-point Energies=           -486.298908
 Sum of electronic and thermal Energies=              -486.285443
 Sum of electronic and thermal Enthalpies=            -486.284499
 Sum of electronic and thermal Free Energies=         -486.337532

                     E (Thermal)             CV                S
                      KCal/Mol        Cal/Mol-Kelvin    Cal/Mol-Kelvin
 Total                  199.895             53.022            111.619
 Electronic               0.000              0.000              0.000
 Translational            0.889              2.981             41.250
 Rotational               0.889              2.981             30.886
 Vibrational            198.118             47.061             39.483
 Vibration     1          0.597              1.972              4.379
 Vibration     2          0.599              1.967              4.065
 Vibration     3          0.604              1.947              3.410
 Vibration     4          0.620              1.896              2.594
 Vibration     5          0.630              1.865              2.311
 Vibration     6          0.636              1.845              2.164
 Vibration     7          0.650              1.803              1.916
 Vibration     8          0.663              1.763              1.731
 Vibration     9          0.668              1.747              1.666
 Vibration    10          0.679              1.713              1.541
 Vibration    11          0.686              1.692              1.474
 Vibration    12          0.701              1.649              1.346
 Vibration    13          0.715              1.610              1.246
 Vibration    14          0.736              1.550              1.112
 Vibration    15          0.754              1.501              1.017
 Vibration    16          0.767              1.468              0.959
 Vibration    17          0.788              1.414              0.872
 Vibration    18          0.811              1.355              0.787
 Vibration    19          0.891              1.169              0.573
 Vibration    20          0.919              1.110              0.517
 Vibration    21          0.974              1.001              0.425

 Optimization completed.
    -- Stationary point found.
 Normal termination of Gaussian 16 at Wed Dec  9 17:16:01 2020.

 ----------------------------------------------------------------------
 # B3LYP/6-311++G(d,p) empiricaldispersion=gd3bj scf=xqc pop=npa geom=c
 heck
 ----------------------------------------------------------------------

 --------------------------------------
 CID_11019239_JID_2316_Energie_neutraal
 --------------------------------------
 Structure from the checkpoint file:  "JID_2316.chk"
 Charge =  0 Multiplicity = 1

 SCF Done:  E(RB3LYP) =  -486.735980086     A.U. after   13 cycles
 Normal termination of Gaussian 16 at Wed Dec  9 17:20:27 2020.

 ----------------------------------------------------------------------
 # B3LYP/6-311++G(d,p) empiricaldispersion=gd3bj scf=xqc pop=npa geom=c
 heck
 ----------------------------------------------------------------------

 ------------------------------------
 CID_11019239_JID_2316_Energie_kation
 ------------------------------------
 Structure from the checkpoint file:  "JID_2316.chk"
 Charge =  1 Multiplicity = 2

 SCF Done:  E(UB3LYP) =  -486.438622242     A.U. after   20 cycles
 Normal termination of Gaussian 16 at Wed Dec  9 17:30:04 2020.
 Gaussian 16:  ES64L-G16RevA.03 25-Dec-2016

 ----------------------------------------------------------------------
 # B3LYP/6-311++G(d,p) empiricaldispersion=gd3bj scf=xqc pop=npa geom=c
 heck
 ----------------------------------------------------------------------

 -----------------------------------
 CID_11019239_JID_2316_Energie_anion
 -----------------------------------
 Structure from the checkpoint file:  "JID_2316.chk"
 Charge = -1 Multiplicity = 2

                         Standard orientation:
 ---------------------------------------------------------------------
 Center     Atomic      Atomic             Coordinates (Angstroms)
 Number     Number       Type             X           Y           Z
 ---------------------------------------------------------------------
      1          6           0       -1.118359   -1.635254    1.033828
      2          6           0       -1.100549   -0.521810   -0.036175
      3          6           0       -1.215695    0.898077    0.619506
      4          6           0       -2.573409    1.489651    0.178654
      5          6           0       -3.422764    0.264330   -0.181192
      6          6           0       -2.405908   -0.635358   -0.885896
      7          6           0        0.089618   -0.755062   -0.981654
      8          7           0        1.336262   -0.517886   -0.997128
      9          6           0        2.231653    0.137954   -0.035472
     10          6           0        2.343493    1.619563   -0.441625
     11          6           0        1.893729    0.001663    1.458814
     12          6           0        3.601027   -0.534745   -0.270848
     13          1           0       -0.300732   -1.523672    1.748392
     14          1           0       -2.061155   -1.607385    1.593010
     15          1           0       -1.032098   -2.624581    0.570200
     16          1           0       -1.181479    0.804868    1.710503
     17          1           0       -0.391581    1.550287    0.329991
     18          1           0       -2.437602    2.110147   -0.716188
     19          1           0       -3.024631    2.125133    0.947681
     20          1           0       -4.288623    0.504717   -0.807020
     21          1           0       -3.800283   -0.219084    0.729195
     22          1           0       -2.222288   -0.245264   -1.895994
     23          1           0       -2.733496   -1.675164   -0.996010
     24          1           0       -0.247794   -1.292820   -1.881159
     25          1           0        1.413632    2.163734   -0.252100
     26          1           0        3.145025    2.106264    0.125185
     27          1           0        2.573342    1.699959   -1.508494
     28          1           0        1.824776   -1.054228    1.739656
     29          1           0        2.696876    0.449765    2.055176
     30          1           0        0.964511    0.498713    1.734656
     31          1           0        3.547040   -1.601655   -0.028476
     32          1           0        3.890697   -0.442321   -1.321405
     33          1           0        4.375009   -0.076266    0.355448
 ---------------------------------------------------------------------

 SCF Done:  E(UB3LYP) =  -486.719684195     A.U. after   31 cycles

 The electronic state is 2-A.
 Alpha  occ. eigenvalues --  -14.19654 -10.11279 -10.10842 -10.08796 -10.06322
 Alpha  occ. eigenvalues --  -10.06237 -10.06065 -10.06039 -10.06033 -10.05954
 Alpha  occ. eigenvalues --  -10.05609 -10.05602  -0.81452  -0.74455  -0.69651
 Alpha  occ. eigenvalues --   -0.64882  -0.61102  -0.59092  -0.58577  -0.56456
 Alpha  occ. eigenvalues --   -0.52376  -0.47594  -0.46068  -0.40653  -0.39207
 Alpha  occ. eigenvalues --   -0.37660  -0.36207  -0.34605  -0.34029  -0.32955
 Alpha  occ. eigenvalues --   -0.31471  -0.30507  -0.29895  -0.29220  -0.28382
 Alpha  occ. eigenvalues --   -0.27398  -0.26797  -0.25597  -0.25076  -0.24063
 Alpha  occ. eigenvalues --   -0.23725  -0.22867  -0.22334  -0.21851  -0.21464
 Alpha  occ. eigenvalues --   -0.18658  -0.12645   0.04610
 Alpha virt. eigenvalues --    0.06713   0.07448   0.07743   0.08585   0.08882
 Alpha virt. eigenvalues --    0.09112   0.09619   0.10009   0.10456   0.11092
 Alpha virt. eigenvalues --    0.11558   0.11870   0.12112   0.12507   0.13562

  Beta  occ. eigenvalues --  -14.19648 -10.11277 -10.10836 -10.08796 -10.06307
  Beta  occ. eigenvalues --  -10.06218 -10.06039 -10.06014 -10.06003 -10.05922
  Beta  occ. eigenvalues --  -10.05586 -10.05585  -0.81440  -0.74431  -0.69632
  Beta  occ. eigenvalues --   -0.64845  -0.61057  -0.59043  -0.58538  -0.56399
  Beta  occ. eigenvalues --   -0.52338  -0.47524  -0.46018  -0.40601  -0.39177
  Beta  occ. eigenvalues --   -0.37624  -0.36171  -0.34578  -0.33994  -0.32924
  Beta  occ. eigenvalues --   -0.31441  -0.30472  -0.29862  -0.29185  -0.28352
  Beta  occ. eigenvalues --   -0.27370  -0.26773  -0.25568  -0.25047  -0.24026
  Beta  occ. eigenvalues --   -0.23683  -0.22834  -0.22299  -0.21815  -0.21439
  Beta  occ. eigenvalues --   -0.18633  -0.12633
  Beta virt. eigenvalues --    0.06714   0.07526   0.08119   0.08403   0.08844
  Beta virt. eigenvalues --    0.09331   0.09570   0.10018   0.10473   0.10794
  Beta virt. eigenvalues --    0.11480   0.11929   0.12193   0.12484   0.12810

 Mulliken charges and spin densities:
               1          2
     1  C    1.272344  -2.015254
     2  C   -0.545389   1.776267
     3  C    0.143096  -0.479768
     4  C    0.049469  -0.567917
     5  C    0.758251  -1.128723
     6  C    0.024602  -0.378164
     7  C   -0.794669   0.160536
     8  N    0.187024  -0.025347
     9  C   -1.449214   1.281220
    10  C    0.639783  -1.136426
    11  C    0.736830  -1.250830
    12  C   -0.048212  -0.342456
    13  H    0.171621  -0.067016
    14  H   -0.197366   0.351571
    15  H   -0.290726   0.455837
    16  H   -0.136619   0.299786
    17  H    0.696160  -0.625210
    18  H   -0.024795   0.159564
    19  H   -0.445071   0.611001
    20  H   -0.403207   0.576680
    21  H    0.028841   0.101718
    22  H    0.024953   0.131180
    23  H   -0.202325   0.366315
    24  H   -0.055884   0.245051
    25  H   -0.471867   0.623773
    26  H   -0.108276   0.243276
    27  H    0.023564   0.134344
    28  H    0.028591   0.115449
    29  H   -0.180276   0.332276
    30  H   -0.395798   0.591295
    31  H   -0.004753   0.154704
    32  H    0.035342   0.123619
    33  H   -0.066026   0.181648
 Sum of Mulliken charges =  -1.00000   1.00000

 Dipole moment (field-independent basis, Debye):
    X=              2.3395    Y=             -0.7693    Z=             -1.4773  Tot=              2.8718
 Quadrupole moment (field-independent basis, Debye-Ang):
   XX=           -148.8392   YY=           -120.2155   ZZ=           -117.5596
   XY=             -0.2462   XZ=              0.1929   YZ=             -2.2625

 Summary of Natural Population Analysis:

                                       Natural Population
                Natural  -----------------------------------------------
    Atom  No    Charge         Core      Valence    Rydberg      Total
 -----------------------------------------------------------------------
      C    1   -0.27825      0.99962     2.27160    0.00704     3.27825
      C    2   -0.07838      0.99955     2.06595    0.01288     3.07838
      C    3   -0.19026      0.99960     2.18140    0.00926     3.19026
      C    4   -0.18840      0.99964     2.18049    0.00827     3.18840
      C    5   -0.19166      0.99963     2.18380    0.00822     3.19166
      C    6   -0.18552      0.99961     2.17551    0.01040     3.18552
      C    7    0.09678      0.99956     1.88781    0.01585     2.90322
      N    8   -0.24270      0.99966     2.72891    0.01413     3.74270
      C    9    0.03972      0.99957     1.94707    0.01364     2.96028
      C   10   -0.28179      0.99961     2.27501    0.00717     3.28179
      C   11   -0.29540      0.99962     2.28849    0.00730     3.29540
      C   12   -0.27772      0.99963     2.27180    0.00629     3.27772
      H   13    0.10277      0.00000     0.39600    0.00122     0.39723
      H   14    0.10112      0.00000     0.39741    0.00147     0.39888
      H   15    0.09931      0.00000     0.39953    0.00116     0.40069
      H   16    0.09943      0.00000     0.39878    0.00179     0.40057
      H   17    0.10249      0.00000     0.39554    0.00197     0.39751
      H   18    0.09333      0.00000     0.40527    0.00140     0.40667
      H   19    0.10127      0.00000     0.39741    0.00132     0.39873
      H   20    0.10080      0.00000     0.39787    0.00133     0.39920
      H   21    0.09522      0.00000     0.40304    0.00175     0.40478
      H   22    0.09688      0.00000     0.40155    0.00157     0.40312
      H   23    0.10180      0.00000     0.39694    0.00125     0.39820
      H   24    0.07584      0.00000     0.42215    0.00200     0.42416
      H   25    0.09959      0.00000     0.39931    0.00109     0.40041
      H   26    0.09958      0.00000     0.39941    0.00101     0.40042
      H   27    0.10275      0.00000     0.39630    0.00095     0.39725
      H   28    0.10000      0.00000     0.39887    0.00113     0.40000
      H   29    0.10154      0.00000     0.39738    0.00108     0.39846
      H   30    0.10396      0.00000     0.39421    0.00183     0.39604
      H   31    0.09960      0.00000     0.39939    0.00101     0.40040
      H   32    0.10168      0.00000     0.39712    0.00120     0.39832
      H   33    0.09460      0.00000     0.40449    0.00091     0.40540
 =======================================================================
   * Total *    0.00000     11.99529    34.85582    0.14889    47.00000

 Normal termination of Gaussian 16 at Wed Dec  9 17:44:35 2020.
