 Gaussian 16, Revision A.03,

 -----------------------------------------------------------
 # opt freq B3LYP/6-31G(d) empiricaldispersion=gd3bj scf=xqc
 -----------------------------------------------------------

 -------------------------------
 CID_103447353_JID_1131_neutraal
 -------------------------------
 Symbolic Z-matrix:
 Charge =  0 Multiplicity = 1

 SCF Done:  E(RB3LYP) =  -465.935783156     A.U. after   15 cycles
 SCF Done:  E(RB3LYP) =  -465.934783684     A.U. after   14 cycles
 SCF Done:  E(RB3LYP) =  -465.937633266     A.U. after   13 cycles
 SCF Done:  E(RB3LYP) =  -465.938481566     A.U. after   12 cycles
 SCF Done:  E(RB3LYP) =  -465.938638640     A.U. after   12 cycles
 SCF Done:  E(RB3LYP) =  -465.939017628     A.U. after   11 cycles
 SCF Done:  E(RB3LYP) =  -465.939126654     A.U. after   11 cycles
 SCF Done:  E(RB3LYP) =  -465.939144772     A.U. after   10 cycles
 SCF Done:  E(RB3LYP) =  -465.939153710     A.U. after   10 cycles
 SCF Done:  E(RB3LYP) =  -465.939154804     A.U. after    8 cycles
 SCF Done:  E(RB3LYP) =  -465.939155362     A.U. after    8 cycles
 SCF Done:  E(RB3LYP) =  -465.939155429     A.U. after    7 cycles
 SCF Done:  E(RB3LYP) =  -465.939155467     A.U. after    7 cycles
 SCF Done:  E(RB3LYP) =  -465.939155487     A.U. after    7 cycles
 SCF Done:  E(RB3LYP) =  -465.939155502     A.U. after    7 cycles
 Optimization completed.
    -- Stationary point found.
 Normal termination of Gaussian 16 at Tue Dec  8 19:17:29 2020.

 --------------------------------------------------------------------
 #N Geom=AllCheck Guess=TCheck SCRF=Check GenChk RB3LYP/6-31G(d) Freq
 --------------------------------------------------------------------

 Structure from the checkpoint file:  "JID_1131.chk"
 -------------------------------
 CID_103447353_JID_1131_neutraal
 -------------------------------
 Charge =  0 Multiplicity = 1

 SCF Done:  E(RB3LYP) =  -465.939155502     A.U. after    1 cycles

  Exact polarizability: 133.705   7.850 109.350   3.145   2.396  88.383
 Approx polarizability: 172.874  26.887 183.482  13.457  11.662 132.672

                      1                      2                      3
                      A                      A                      A
 Frequencies --     32.5762                55.8042                84.9302
 Red. masses --      4.4011                 2.7157                 2.2676
 Frc consts  --      0.0028                 0.0050                 0.0096
 IR Inten    --      2.3684                 0.6059                 0.3115

                      4                      5                      6
                      A                      A                      A
 Frequencies --    104.7103               127.7410               144.9214
 Red. masses --      2.4421                 1.1556                 1.7078
 Frc consts  --      0.0158                 0.0111                 0.0211
 IR Inten    --      1.4082                 0.5436                 0.5298

                      7                      8                      9
                      A                      A                      A
 Frequencies --    163.9435               194.8840               217.3847
 Red. masses --      1.7158                 1.5018                 1.8115
 Frc consts  --      0.0272                 0.0336                 0.0504
 IR Inten    --      0.3643                 1.3393                 0.3731

                     10                     11                     12
                      A                      A                      A
 Frequencies --    229.9090               246.0810               280.5461
 Red. masses --      1.1933                 2.6848                 3.1414
 Frc consts  --      0.0372                 0.0958                 0.1457
 IR Inten    --      0.5359                 5.2899                 4.9682

                     13                     14                     15
                      A                      A                      A
 Frequencies --    309.5126               324.4845               379.7797
 Red. masses --      2.5304                 2.4140                 2.6076
 Frc consts  --      0.1428                 0.1498                 0.2216
 IR Inten    --      0.8400                 1.4475                 3.5865

                     16                     17                     18
                      A                      A                      A
 Frequencies --    434.5170               471.6114               519.8122
 Red. masses --      3.2303                 2.5446                 3.5055
 Frc consts  --      0.3593                 0.3335                 0.5581
 IR Inten    --      3.1512                 6.3164                 7.7193

                     19                     20                     21
                      A                      A                      A
 Frequencies --    532.8800               671.0667               682.1920
 Red. masses --      3.4461                 4.0909                 3.3311
 Frc consts  --      0.5765                 1.0854                 0.9134
 IR Inten    --      0.9442                 1.7382                 0.1106

                     22                     23                     24
                      A                      A                      A
 Frequencies --    777.4733               798.2494               856.9569
 Red. masses --      3.0776                 1.1907                 2.2547
 Frc consts  --      1.0961                 0.4470                 0.9756
 IR Inten    --     17.6749                 2.3601                 1.4440

                     25                     26                     27
                      A                      A                      A
 Frequencies --    875.4232               899.2088               942.1569
 Red. masses --      1.4877                 1.6104                 1.9254
 Frc consts  --      0.6717                 0.7672                 1.0070
 IR Inten    --      2.1119                57.1168                 6.8096

                     28                     29                     30
                      A                      A                      A
 Frequencies --    972.8637               974.4840              1019.5186
 Red. masses --      1.9299                 1.4972                 1.2476
 Frc consts  --      1.0762                 0.8377                 0.7640
 IR Inten    --      4.2895                 1.3490                 6.6767

                     31                     32                     33
                      A                      A                      A
 Frequencies --   1076.6183              1078.5557              1096.6850
 Red. masses --      2.4841                 1.5684                 1.7332
 Frc consts  --      1.6964                 1.0750                 1.2282
 IR Inten    --     33.6909                 0.5872                 7.2224

                     34                     35                     36
                      A                      A                      A
 Frequencies --   1106.1785              1118.6365              1129.1678
 Red. masses --      1.5844                 1.7000                 1.9012
 Frc consts  --      1.1422                 1.2534                 1.4282
 IR Inten    --      6.3073                 0.8193                 0.5341

                     37                     38                     39
                      A                      A                      A
 Frequencies --   1182.5645              1221.4703              1294.1923
 Red. masses --      2.4253                 2.3409                 2.3670
 Frc consts  --      1.9983                 2.0578                 2.3359
 IR Inten    --     12.6294                 5.9411                95.4496

                     40                     41                     42
                      A                      A                      A
 Frequencies --   1304.7698              1370.9297              1381.7007
 Red. masses --      1.1722                 1.4165                 1.4922
 Frc consts  --      1.1758                 1.5686                 1.6785
 IR Inten    --      6.1834                 4.8420                 4.2290

                     43                     44                     45
                      A                      A                      A
 Frequencies --   1422.8674              1426.9938              1437.2945
 Red. masses --      1.4255                 1.3218                 1.3511
 Frc consts  --      1.7004                 1.5858                 1.6445
 IR Inten    --     28.5014                 5.1394                 9.7151

                     46                     47                     48
                      A                      A                      A
 Frequencies --   1441.7218              1447.9416              1500.2091
 Red. masses --      1.2943                 1.2346                 1.0484
 Frc consts  --      1.5851                 1.5250                 1.3902
 IR Inten    --      3.1495                 6.5030                 1.1338

                     49                     50                     51
                      A                      A                      A
 Frequencies --   1509.0050              1512.6230              1515.5264
 Red. masses --      1.0514                 1.0519                 1.0657
 Frc consts  --      1.4106                 1.4180                 1.4422
 IR Inten    --      4.9680                11.0092                 9.8040

                     52                     53                     54
                      A                      A                      A
 Frequencies --   1515.8684              1519.7699              1522.0896
 Red. masses --      1.0684                 1.0895                 1.0449
 Frc consts  --      1.4465                 1.4827                 1.4263
 IR Inten    --      7.0943                12.3722                17.1913

                     55                     56                     57
                      A                      A                      A
 Frequencies --   1523.3035              1547.1504              1712.4710
 Red. masses --      1.0572                 1.0586                 7.2715
 Frc consts  --      1.4453                 1.4930                12.5638
 IR Inten    --     12.9293                 3.8841                41.8086

                     58                     59                     60
                      A                      A                      A
 Frequencies --   1713.4729              1720.0371              3031.7149
 Red. masses --      8.9800                 6.3634                 1.0397
 Frc consts  --     15.5339                11.0921                 5.6303
 IR Inten    --    207.9717                33.4721                15.3307

                     61                     62                     63
                      A                      A                      A
 Frequencies --   3035.1312              3040.7115              3045.6638
 Red. masses --      1.0440                 1.0432                 1.0598
 Frc consts  --      5.6663                 5.6831                 5.7922
 IR Inten    --     19.9766                44.8517                27.1307

                     64                     65                     66
                      A                      A                      A
 Frequencies --   3050.7528              3077.3031              3078.2246
 Red. masses --      1.0390                 1.0983                 1.0990
 Frc consts  --      5.6974                 6.1277                 6.1352
 IR Inten    --     39.1588                16.7611                14.2235

                     67                     68                     69
                      A                      A                      A
 Frequencies --   3083.3033              3085.0826              3113.1522
 Red. masses --      1.0986                 1.1025                 1.1025
 Frc consts  --      6.1535                 6.1827                 6.2955
 IR Inten    --     25.9396                15.5237                48.8808

                     70                     71                     72
                      A                      A                      A
 Frequencies --   3123.3933              3136.6959              3161.7974
 Red. masses --      1.0870                 1.0997                 1.0996
 Frc consts  --      6.2478                 6.3750                 6.4766
 IR Inten    --     21.0237                16.1857                10.6929

                     73                     74                     75
                      A                      A                      A
 Frequencies --   3166.8479              3171.8878              3189.8598
 Red. masses --      1.0881                 1.0952                 1.0942
 Frc consts  --      6.4295                 6.4919                 6.5598
 IR Inten    --     13.4345                12.9031                 6.1544

 - Thermochemistry -
 -------------------
 Temperature   298.150 Kelvin.  Pressure   1.00000 Atm.
 Atom     1 has atomic number  6 and mass  12.00000

 Molecular mass:   152.12012 amu.
 Principal axes and moments of inertia in atomic units:
                           1         2         3
     Eigenvalues --  1082.043692620.467913010.05823
           X            0.99999  -0.00178  -0.00441
           Y            0.00164   0.99949  -0.03202
           Z            0.00447   0.03201   0.99948
 This molecule is an asymmetric top.
 Rotational symmetry number  1.
 Warning -- assumption of classical behavior for rotation
           may cause significant error
 Rotational temperatures (Kelvin)      0.08005     0.03305     0.02877
 Rotational constants (GHZ):           1.66790     0.68871     0.59957
 Zero-point vibrational energy     623654.9 (Joules/Mol)
                                  149.05710 (Kcal/Mol)
 Warning -- explicit consideration of  19 degrees of freedom as
           vibrations may cause significant error
 Vibrational temperatures:     46.87    80.29   122.20   150.65   183.79
          (Kelvin)            208.51   235.88   280.39   312.77   330.79
                              354.06   403.64   445.32   466.86   546.42
                              625.17   678.54   747.89   766.70   965.52
                              981.52  1118.61  1148.50  1232.97  1259.54
                             1293.76  1355.55  1399.73  1402.07  1466.86
                             1549.01  1551.80  1577.89  1591.54  1609.47
                             1624.62  1701.45  1757.42  1862.05  1877.27
                             1972.46  1987.96  2047.19  2053.13  2067.95
                             2074.32  2083.26  2158.47  2171.12  2176.33
                             2180.50  2181.00  2186.61  2189.95  2191.69
                             2226.00  2463.86  2465.31  2474.75  4361.96
                             4366.88  4374.91  4382.03  4389.35  4427.55
                             4428.88  4436.19  4438.75  4479.13  4493.87
                             4513.01  4549.12  4556.39  4563.64  4589.50

 Zero-point correction=                           0.237538 (Hartree/Particle)
 Thermal correction to Energy=                    0.251175
 Thermal correction to Enthalpy=                  0.252119
 Thermal correction to Gibbs Free Energy=         0.197181
 Sum of electronic and zero-point Energies=           -465.701618
 Sum of electronic and thermal Energies=              -465.687981
 Sum of electronic and thermal Enthalpies=            -465.687037
 Sum of electronic and thermal Free Energies=         -465.741975

                     E (Thermal)             CV                S
                      KCal/Mol        Cal/Mol-Kelvin    Cal/Mol-Kelvin
 Total                  157.615             48.491            115.627
 Electronic               0.000              0.000              0.000
 Translational            0.889              2.981             40.968
 Rotational               0.889              2.981             30.524
 Vibrational            155.837             42.529             44.134
 Vibration     1          0.594              1.983              5.666
 Vibration     2          0.596              1.975              4.600
 Vibration     3          0.601              1.960              3.774
 Vibration     4          0.605              1.945              3.365
 Vibration     5          0.611              1.925              2.980
 Vibration     6          0.616              1.908              2.738
 Vibration     7          0.623              1.887              2.504
 Vibration     8          0.636              1.847              2.181
 Vibration     9          0.646              1.815              1.981
 Vibration    10          0.652              1.795              1.880
 Vibration    11          0.661              1.769              1.758
 Vibration    12          0.680              1.710              1.530
 Vibration    13          0.699              1.656              1.365
 Vibration    14          0.709              1.626              1.287
 Vibration    15          0.750              1.513              1.040
 Vibration    16          0.795              1.395              0.844
 Vibration    17          0.829              1.313              0.733
 Vibration    18          0.875              1.206              0.610
 Vibration    19          0.888              1.177              0.581

 Optimization completed.
    -- Stationary point found.
 Normal termination of Gaussian 16 at Tue Dec  8 19:23:28 2020.

 ----------------------------------------------------------------------
 # B3LYP/6-311++G(d,p) empiricaldispersion=gd3bj scf=xqc pop=npa geom=c
 heck
 ----------------------------------------------------------------------

 ---------------------------------------
 CID_103447353_JID_1131_Energie_neutraal
 ---------------------------------------
 Structure from the checkpoint file:  "JID_1131.chk"
 Charge =  0 Multiplicity = 1

 SCF Done:  E(RB3LYP) =  -466.070771530     A.U. after   15 cycles
 Normal termination of Gaussian 16 at Tue Dec  8 19:26:22 2020.

 ----------------------------------------------------------------------
 # B3LYP/6-311++G(d,p) empiricaldispersion=gd3bj scf=xqc pop=npa geom=c
 heck
 ----------------------------------------------------------------------

 -------------------------------------
 CID_103447353_JID_1131_Energie_kation
 -------------------------------------
 Structure from the checkpoint file:  "JID_1131.chk"
 Charge =  1 Multiplicity = 2

 SCF Done:  E(UB3LYP) =  -465.756459219     A.U. after   24 cycles
 Normal termination of Gaussian 16 at Tue Dec  8 19:32:56 2020.
 Gaussian 16:  ES64L-G16RevA.03 25-Dec-2016

 ----------------------------------------------------------------------
 # B3LYP/6-311++G(d,p) empiricaldispersion=gd3bj scf=xqc pop=npa geom=c
 heck
 ----------------------------------------------------------------------

 ------------------------------------
 CID_103447353_JID_1131_Energie_anion
 ------------------------------------
 Structure from the checkpoint file:  "JID_1131.chk"
 Charge = -1 Multiplicity = 2

                         Standard orientation:
 ---------------------------------------------------------------------
 Center     Atomic      Atomic             Coordinates (Angstroms)
 Number     Number       Type             X           Y           Z
 ---------------------------------------------------------------------
      1          6           0       -3.534623   -0.417125    0.167962
      2          6           0       -2.277949   -0.090822    0.990876
      3          6           0       -1.085822    0.289727    0.129309
      4          6           0       -0.874268    1.573659   -0.210997
      5          6           0        0.146406    2.161370   -1.139659
      6          6           0       -0.306501   -0.866072   -0.423174
      7          8           0       -0.913229   -1.875512   -0.780320
      8          6           0        1.172299   -0.868175   -0.558926
      9          6           0        2.116406   -0.318059    0.229991
     10          6           0        3.573637   -0.560283   -0.071214
     11          6           0        1.873033    0.518812    1.457108
     12          1           0       -3.833266    0.447536   -0.435821
     13          1           0       -4.371211   -0.681058    0.825490
     14          1           0       -3.335874   -1.254931   -0.503328
     15          1           0       -2.493316    0.738011    1.676607
     16          1           0       -2.020132   -0.959480    1.608007
     17          1           0       -1.566113    2.304310    0.213554
     18          1           0       -0.353863    2.764210   -1.908688
     19          1           0        0.815225    2.843875   -0.597128
     20          1           0        0.759663    1.408347   -1.634615
     21          1           0        1.498092   -1.532418   -1.357653
     22          1           0        4.104060    0.394054   -0.193536
     23          1           0        4.062528   -1.082660    0.762067
     24          1           0        3.714121   -1.152328   -0.979525
     25          1           0        0.821897    0.590964    1.729706
     26          1           0        2.431302    0.100755    2.304823
     27          1           0        2.257005    1.536712    1.304947
 ---------------------------------------------------------------------

 SCF Done:  E(UB3LYP) =  -466.073517825     A.U. after   33 cycles
 SCF Done:  E(UB3LYP) =  -466.073517825     a.u. after    1 cycles

 The electronic state is 2-A.
 Alpha  occ. eigenvalues --  -18.89694 -10.04424 -10.03539 -10.02974 -10.02594
 Alpha  occ. eigenvalues --  -10.02509 -10.02451 -10.01790 -10.01301 -10.01112
 Alpha  occ. eigenvalues --   -9.99818  -0.83915  -0.66915  -0.65842  -0.61318
 Alpha  occ. eigenvalues --   -0.55975  -0.55520  -0.54027  -0.47111  -0.44334
 Alpha  occ. eigenvalues --   -0.39609  -0.33811  -0.32233  -0.31660  -0.30538
 Alpha  occ. eigenvalues --   -0.30180  -0.28581  -0.27762  -0.26871  -0.25414
 Alpha  occ. eigenvalues --   -0.24853  -0.24071  -0.23639  -0.23148  -0.21774
 Alpha  occ. eigenvalues --   -0.21119  -0.20610  -0.19921  -0.17570  -0.10116
 Alpha  occ. eigenvalues --   -0.09597  -0.06400   0.05618
 Alpha virt. eigenvalues --    0.08395   0.09127   0.09759   0.10404   0.11385
 Alpha virt. eigenvalues --    0.11618   0.12092   0.12692   0.13353   0.14276
 Alpha virt. eigenvalues --    0.14762   0.14819   0.15122   0.15316   0.15820

  Beta  occ. eigenvalues --  -18.89060 -10.04068 -10.03567 -10.02949 -10.02602
  Beta  occ. eigenvalues --  -10.02535 -10.02450 -10.01409 -10.01338 -10.00850
  Beta  occ. eigenvalues --   -9.99873  -0.82786  -0.66509  -0.65545  -0.61136
  Beta  occ. eigenvalues --   -0.55837  -0.55288  -0.53959  -0.46992  -0.43506
  Beta  occ. eigenvalues --   -0.39160  -0.33521  -0.32072  -0.31479  -0.30361
  Beta  occ. eigenvalues --   -0.29799  -0.28366  -0.27535  -0.26758  -0.25301
  Beta  occ. eigenvalues --   -0.24629  -0.23918  -0.23351  -0.22976  -0.21340
  Beta  occ. eigenvalues --   -0.20434  -0.20237  -0.19476  -0.16263  -0.09226
  Beta  occ. eigenvalues --   -0.08010  -0.05614
  Beta virt. eigenvalues --    0.08370   0.08969   0.09663   0.10328   0.11242
  Beta virt. eigenvalues --    0.11508   0.11954   0.12515   0.12871   0.13305
  Beta virt. eigenvalues --    0.14170   0.14710   0.14904   0.15140   0.15277

 Mulliken charges and spin densities:
               1          2
     1  C   -0.592069  -0.003751
     2  C   -0.299364  -0.000714
     3  C    1.366710   0.052609
     4  C   -0.463575   0.273232
     5  C   -0.397159  -0.325514
     6  C   -1.259699   0.207098
     7  O   -0.371982   0.219161
     8  C   -0.125378  -0.064097
     9  C    0.852043   0.186853
    10  C   -0.546365  -0.060822
    11  C   -0.724430  -0.027782
    12  H    0.110706  -0.006635
    13  H    0.059096   0.022898
    14  H    0.192901  -0.001377
    15  H    0.090364   0.019503
    16  H    0.151106  -0.002096
    17  H   -0.035398   0.146373
    18  H    0.026211   0.099293
    19  H    0.098825   0.013191
    20  H    0.152976   0.031177
    21  H    0.129558   0.021757
    22  H    0.104951   0.009926
    23  H    0.029919   0.082937
    24  H    0.132913   0.005319
    25  H    0.181749  -0.001407
    26  H    0.063032   0.059113
    27  H    0.072361   0.043755
 Sum of Mulliken charges =  -1.00000   1.00000

 Dipole moment (field-independent basis, Debye):
    X=              0.8829    Y=              2.6265    Z=              1.3042  Tot=              3.0626
 Quadrupole moment (field-independent basis, Debye-Ang):
   XX=            -96.6628   YY=            -94.5915   ZZ=            -82.0817
   XY=             -1.6876   XZ=             -3.7052   YZ=             -3.0305

 Summary of Natural Population Analysis:

                                       Natural Population
                Natural  -----------------------------------------------
    Atom  No    Charge         Core      Valence    Rydberg      Total
 -----------------------------------------------------------------------
      C    1   -0.28254      0.99966     2.27902    0.00386     3.28254
      C    2   -0.18856      0.99961     2.18084    0.00812     3.18856
      C    3   -0.06040      0.99944     2.04581    0.01514     3.06040
      C    4   -0.03741      0.99948     2.02767    0.01027     3.03741
      C    5   -0.30681      0.99966     2.29942    0.00773     3.30681
      C    6    0.28616      0.99957     1.69219    0.02208     2.71384
      O    7   -0.24798      0.99988     3.24177    0.00633     4.24798
      C    8   -0.15338      0.99945     2.14346    0.01047     3.15338
      C    9    0.06036      0.99952     1.93104    0.00907     2.93964
      C   10   -0.29398      0.99964     2.28994    0.00440     3.29398
      C   11   -0.30411      0.99963     2.29883    0.00565     3.30411
      H   12    0.08953      0.00000     0.40904    0.00143     0.41047
      H   13    0.08343      0.00000     0.41555    0.00102     0.41657
      H   14    0.11283      0.00000     0.38606    0.00111     0.38717
      H   15    0.08630      0.00000     0.41182    0.00188     0.41370
      H   16    0.09719      0.00000     0.40168    0.00113     0.40281
      H   17    0.07572      0.00000     0.42258    0.00170     0.42428
      H   18    0.09497      0.00000     0.40397    0.00106     0.40503
      H   19    0.09558      0.00000     0.40339    0.00103     0.40442
      H   20    0.11100      0.00000     0.38813    0.00087     0.38900
      H   21    0.09312      0.00000     0.40534    0.00154     0.40688
      H   22    0.09404      0.00000     0.40483    0.00113     0.40596
      H   23    0.09458      0.00000     0.40373    0.00169     0.40542
      H   24    0.09667      0.00000     0.40254    0.00080     0.40333
      H   25    0.11314      0.00000     0.38618    0.00068     0.38686
      H   26    0.09409      0.00000     0.40495    0.00096     0.40591
      H   27    0.09647      0.00000     0.40263    0.00091     0.40353
 =======================================================================
   * Total *    0.00000     10.99553    30.88241    0.12206    42.00000

 Normal termination of Gaussian 16 at Tue Dec  8 19:41:49 2020.
