 Gaussian 16, Revision A.03,

 -----------------------------------------------------------
 # opt freq B3LYP/6-31G(d) empiricaldispersion=gd3bj scf=xqc
 -----------------------------------------------------------

 -------------------------------
 CID_133625163_JID_1468_neutraal
 -------------------------------
 Symbolic Z-matrix:
 Charge =  0 Multiplicity = 1

 SCF Done:  E(RB3LYP) =  -512.823408248     A.U. after   15 cycles
 SCF Done:  E(RB3LYP) =  -512.829159984     A.U. after   13 cycles
 SCF Done:  E(RB3LYP) =  -512.829848067     A.U. after   13 cycles
 SCF Done:  E(RB3LYP) =  -512.830130503     A.U. after   12 cycles
 SCF Done:  E(RB3LYP) =  -512.830249698     A.U. after   11 cycles
 SCF Done:  E(RB3LYP) =  -512.830323494     A.U. after   12 cycles
 SCF Done:  E(RB3LYP) =  -512.830393314     A.U. after   12 cycles
 SCF Done:  E(RB3LYP) =  -512.830441491     A.U. after   12 cycles
 SCF Done:  E(RB3LYP) =  -512.830466099     A.U. after   12 cycles
 SCF Done:  E(RB3LYP) =  -512.830525201     A.U. after   12 cycles
 SCF Done:  E(RB3LYP) =  -512.830559285     A.U. after   12 cycles
 SCF Done:  E(RB3LYP) =  -512.830567045     A.U. after   11 cycles
 SCF Done:  E(RB3LYP) =  -512.830568829     A.U. after   10 cycles
 SCF Done:  E(RB3LYP) =  -512.830569578     A.U. after    9 cycles
 SCF Done:  E(RB3LYP) =  -512.830569686     A.U. after    8 cycles
 SCF Done:  E(RB3LYP) =  -512.830569723     A.U. after    8 cycles
 Optimization completed.
    -- Stationary point found.
 Normal termination of Gaussian 16 at Tue Dec  8 20:05:51 2020.

 --------------------------------------------------------------------
 #N Geom=AllCheck Guess=TCheck SCRF=Check GenChk RB3LYP/6-31G(d) Freq
 --------------------------------------------------------------------

 Structure from the checkpoint file:  "JID_1468.chk"
 -------------------------------
 CID_133625163_JID_1468_neutraal
 -------------------------------
 Charge =  0 Multiplicity = 1

 SCF Done:  E(RB3LYP) =  -512.830569723     A.U. after    1 cycles

  Exact polarizability: 256.665  22.683  87.131  -2.970  -8.406  50.759
 Approx polarizability: 377.421  68.626 144.983 -11.492 -18.865  75.894

                      1                      2                      3
                      A                      A                      A
 Frequencies --     37.9271                55.0067                61.1903
 Red. masses --      2.9744                 4.7792                 2.7316
 Frc consts  --      0.0025                 0.0085                 0.0060
 IR Inten    --      7.5176                 2.2184                 3.3031

                      4                      5                      6
                      A                      A                      A
 Frequencies --    102.2971               139.8860               163.9297
 Red. masses --      4.8421                 4.1207                 1.4453
 Frc consts  --      0.0299                 0.0475                 0.0229
 IR Inten    --      4.1021                 2.2375                 6.4427

                      7                      8                      9
                      A                      A                      A
 Frequencies --    221.6337               229.5245               273.9131
 Red. masses --      2.9211                 2.0565                 4.2502
 Frc consts  --      0.0845                 0.0638                 0.1879
 IR Inten    --      8.7174                 2.6194                 7.3366

                     10                     11                     12
                      A                      A                      A
 Frequencies --    305.7677               325.9154               377.6367
 Red. masses --      5.6696                 2.5954                 3.5041
 Frc consts  --      0.3123                 0.1624                 0.2944
 IR Inten    --      1.1036                 5.7992                 3.8525

                     13                     14                     15
                      A                      A                      A
 Frequencies --    422.1037               478.2783               498.6030
 Red. masses --      3.5771                 1.1153                 5.0056
 Frc consts  --      0.3755                 0.1503                 0.7332
 IR Inten    --      1.0400                18.0207                27.1155

                     16                     17                     18
                      A                      A                      A
 Frequencies --    531.5901               558.1135               590.0766
 Red. masses --      3.0171                 1.6443                 2.2059
 Frc consts  --      0.5023                 0.3018                 0.4525
 IR Inten    --      1.1405                59.2399                88.9267

                     19                     20                     21
                      A                      A                      A
 Frequencies --    616.9532               740.2288               752.1163
 Red. masses --      1.2957                 4.2024                 5.3740
 Frc consts  --      0.2906                 1.3567                 1.7911
 IR Inten    --    177.8163                24.6871                73.1465

                     22                     23                     24
                      A                      A                      A
 Frequencies --    804.5170               897.1337               924.2159
 Red. masses --      1.3937                 1.9477                 3.9792
 Frc consts  --      0.5315                 0.9236                 2.0026
 IR Inten    --      3.3919                 1.2677                18.9632

                     25                     26                     27
                      A                      A                      A
 Frequencies --    950.8035               968.1872              1002.4140
 Red. masses --      1.6069                 1.2184                 1.2470
 Frc consts  --      0.8559                 0.6729                 0.7383
 IR Inten    --     28.7227                 1.6062                 3.2508

                     28                     29                     30
                      A                      A                      A
 Frequencies --   1047.8672              1072.6538              1116.7559
 Red. masses --      1.1089                 1.5337                 2.4274
 Frc consts  --      0.7174                 1.0397                 1.7837
 IR Inten    --     60.4490                 0.0969                 3.1659

                     31                     32                     33
                      A                      A                      A
 Frequencies --   1129.5412              1138.5623              1207.9849
 Red. masses --      2.8979                 1.9622                 2.6615
 Frc consts  --      2.1784                 1.4987                 2.2883
 IR Inten    --     42.0683               169.6575                45.8311

                     34                     35                     36
                      A                      A                      A
 Frequencies --   1218.7361              1263.0570              1332.5357
 Red. masses --      1.9811                 1.2805                 1.6196
 Frc consts  --      1.7337                 1.2036                 1.6944
 IR Inten    --     16.6491                 1.0531                 0.4497

                     37                     38                     39
                      A                      A                      A
 Frequencies --   1345.4146              1349.9747              1393.7536
 Red. masses --      1.3461                 1.3436                 2.6786
 Frc consts  --      1.4356                 1.4427                 3.0657
 IR Inten    --      7.3676                 1.9354               386.4071

                     40                     41                     42
                      A                      A                      A
 Frequencies --   1417.6349              1441.7869              1493.8165
 Red. masses --      2.0114                 1.2692                 1.3290
 Frc consts  --      2.3817                 1.5544                 1.7473
 IR Inten    --     98.7623                 4.0600                 9.2992

                     43                     44                     45
                      A                      A                      A
 Frequencies --   1506.1434              1518.4468              1646.3195
 Red. masses --      1.0453                 1.0698                 2.3371
 Frc consts  --      1.3970                 1.4533                 3.7321
 IR Inten    --      6.6630                10.2862                42.2038

                     46                     47                     48
                      A                      A                      A
 Frequencies --   1653.1928              1688.4011              1725.2846
 Red. masses --      1.7392                 4.9807                 5.1518
 Frc consts  --      2.8005                 8.3654                 9.0350
 IR Inten    --    137.2530                 4.8253                50.3186

                     49                     50                     51
                      A                      A                      A
 Frequencies --   1816.9120              3030.0211              3074.2606
 Red. masses --      6.5437                 1.0379                 1.0996
 Frc consts  --     12.7274                 5.6146                 6.1229
 IR Inten    --    609.7212                49.2923                21.8753

                     52                     53                     54
                      A                      A                      A
 Frequencies --   3118.1421              3120.0423              3143.7262
 Red. masses --      1.0883                 1.0983                 1.0886
 Frc consts  --      6.2343                 6.2994                 6.3386
 IR Inten    --     12.5564                 8.8687                 0.7612

                     55                     56                     57
                      A                      A                      A
 Frequencies --   3145.6943              3155.1602              3184.8220
 Red. masses --      1.0919                 1.0871                 1.0891
 Frc consts  --      6.3657                 6.3759                 6.5086
 IR Inten    --      7.4128                54.9459                15.1732

                     58                     59                     60
                      A                      A                      A
 Frequencies --   3551.5585              3629.0100              3665.9474
 Red. masses --      1.0478                 1.0774                 1.0997
 Frc consts  --      7.7868                 8.3596                 8.7079
 IR Inten    --     14.3836                65.6244                42.2465

 - Thermochemistry -
 -------------------
 Temperature   298.150 Kelvin.  Pressure   1.00000 Atm.
 Atom     1 has atomic number  6 and mass  12.00000

 Molecular mass:   153.09021 amu.
 Principal axes and moments of inertia in atomic units:
                           1         2         3
     Eigenvalues --   380.409876152.143896464.84215
           X            1.00000   0.00077  -0.00129
           Y           -0.00078   0.99994  -0.01129
           Z            0.00129   0.01129   0.99994
 This molecule is an asymmetric top.
 Rotational symmetry number  1.
 Rotational temperatures (Kelvin)      0.22769     0.01408     0.01340
 Rotational constants (GHZ):           4.74420     0.29335     0.27916
 Zero-point vibrational energy     474756.7 (Joules/Mol)
                                  113.46958 (Kcal/Mol)
 Warning -- explicit consideration of  19 degrees of freedom as
           vibrations may cause significant error
 Vibrational temperatures:     54.57    79.14    88.04   147.18   201.26
          (Kelvin)            235.86   318.88   330.23   394.10   439.93
                              468.92   543.34   607.31   688.14   717.38
                              764.84   803.00   848.99   887.66  1065.02
                             1082.13  1157.52  1290.78  1329.74  1367.99
                             1393.01  1442.25  1507.65  1543.31  1606.76
                             1625.16  1638.14  1738.02  1753.49  1817.26
                             1917.22  1935.75  1942.31  2005.30  2039.66
                             2074.41  2149.27  2167.00  2184.71  2368.69
                             2378.58  2429.23  2482.30  2614.13  4359.52
                             4423.18  4486.31  4489.05  4523.12  4525.95
                             4539.57  4582.25  5109.90  5221.34  5274.48

 Zero-point correction=                           0.180825 (Hartree/Particle)
 Thermal correction to Energy=                    0.192991
 Thermal correction to Enthalpy=                  0.193936
 Thermal correction to Gibbs Free Energy=         0.141441
 Sum of electronic and zero-point Energies=           -512.649744
 Sum of electronic and thermal Energies=              -512.637578
 Sum of electronic and thermal Enthalpies=            -512.636634
 Sum of electronic and thermal Free Energies=         -512.689129

                     E (Thermal)             CV                S
                      KCal/Mol        Cal/Mol-Kelvin    Cal/Mol-Kelvin
 Total                  121.104             43.469            110.485
 Electronic               0.000              0.000              0.000
 Translational            0.889              2.981             40.987
 Rotational               0.889              2.981             31.093
 Vibrational            119.327             37.508             38.404
 Vibration     1          0.594              1.982              5.365
 Vibration     2          0.596              1.976              4.629
 Vibration     3          0.597              1.973              4.418
 Vibration     4          0.604              1.947              3.410
 Vibration     5          0.615              1.913              2.805
 Vibration     6          0.623              1.887              2.504
 Vibration     7          0.648              1.808              1.946
 Vibration     8          0.652              1.796              1.883
 Vibration     9          0.676              1.721              1.571
 Vibration    10          0.696              1.663              1.385
 Vibration    11          0.710              1.624              1.280
 Vibration    12          0.748              1.518              1.049
 Vibration    13          0.784              1.422              0.885
 Vibration    14          0.835              1.298              0.715
 Vibration    15          0.854              1.253              0.662
 Vibration    16          0.887              1.180              0.584
 Vibration    17          0.914              1.122              0.528
 Vibration    18          0.947              1.053              0.467
 Vibration    19          0.977              0.996              0.421

 Optimization completed.
    -- Stationary point found.
 Normal termination of Gaussian 16 at Tue Dec  8 20:08:59 2020.

 ----------------------------------------------------------------------
 # B3LYP/6-311++G(d,p) empiricaldispersion=gd3bj scf=xqc pop=npa geom=c
 heck
 ----------------------------------------------------------------------

 ---------------------------------------
 CID_133625163_JID_1468_Energie_neutraal
 ---------------------------------------
 Structure from the checkpoint file:  "JID_1468.chk"
 Charge =  0 Multiplicity = 1

 SCF Done:  E(RB3LYP) =  -512.990633833     A.U. after   15 cycles
 Normal termination of Gaussian 16 at Tue Dec  8 20:11:09 2020.

 ----------------------------------------------------------------------
 # B3LYP/6-311++G(d,p) empiricaldispersion=gd3bj scf=xqc pop=npa geom=c
 heck
 ----------------------------------------------------------------------

 -------------------------------------
 CID_133625163_JID_1468_Energie_kation
 -------------------------------------
 Structure from the checkpoint file:  "JID_1468.chk"
 Charge =  1 Multiplicity = 2

 SCF Done:  E(UB3LYP) =  -512.708261844     A.U. after   22 cycles
 Normal termination of Gaussian 16 at Tue Dec  8 20:14:57 2020.
 Gaussian 16:  ES64L-G16RevA.03 25-Dec-2016

 ----------------------------------------------------------------------
 # B3LYP/6-311++G(d,p) empiricaldispersion=gd3bj scf=xqc pop=npa geom=c
 heck
 ----------------------------------------------------------------------

 ------------------------------------
 CID_133625163_JID_1468_Energie_anion
 ------------------------------------
 Structure from the checkpoint file:  "JID_1468.chk"
 Charge = -1 Multiplicity = 2

                         Standard orientation:
 ---------------------------------------------------------------------
 Center     Atomic      Atomic             Coordinates (Angstroms)
 Number     Number       Type             X           Y           Z
 ---------------------------------------------------------------------
      1          6           0        5.680314    0.260442    0.061136
      2          6           0        4.239517    0.564757   -0.204881
      3          6           0        3.209375   -0.245617    0.100069
      4          6           0        1.825187    0.070533   -0.168790
      5          6           0        0.781955   -0.737811    0.131220
      6          6           0       -0.587189   -0.390672   -0.160291
      7          7           0       -1.534716   -1.212883    0.157658
      8          7           0       -2.838017   -0.879477   -0.125042
      9          6           0       -3.540269    0.325659   -0.020178
     10          8           0       -4.739500    0.349470   -0.249755
     11          7           0       -2.810006    1.448823    0.329327
     12          1           0        5.803605   -0.714646    0.543355
     13          1           0        6.133856    1.022651    0.709506
     14          1           0        6.263404    0.257607   -0.869987
     15          1           0        4.025157    1.520830   -0.684834
     16          1           0        3.410622   -1.204517    0.578996
     17          1           0        1.625941    1.029902   -0.648572
     18          1           0        0.946337   -1.699606    0.612878
     19          1           0       -0.776132    0.560434   -0.664817
     20          1           0       -3.457920   -1.676607   -0.081203
     21          1           0       -2.014846    1.316491    0.943072
     22          1           0       -3.418185    2.212727    0.596340
 ---------------------------------------------------------------------

 SCF Done:  E(UB3LYP) =  -513.005646624     A.U. after   24 cycles

 The electronic state is 2-A.
 Alpha  occ. eigenvalues --  -18.95873 -14.22282 -14.21164 -14.16207 -10.16745
 Alpha  occ. eigenvalues --  -10.04665 -10.03481 -10.01808 -10.01112 -10.00299
 Alpha  occ. eigenvalues --  -10.00227  -0.92864  -0.84603  -0.78417  -0.68959
 Alpha  occ. eigenvalues --   -0.66133  -0.61649  -0.55567  -0.50844  -0.46677
 Alpha  occ. eigenvalues --   -0.43155  -0.41319  -0.39597  -0.37815  -0.35108
 Alpha  occ. eigenvalues --   -0.32051  -0.30879  -0.30502  -0.29377  -0.29253
 Alpha  occ. eigenvalues --   -0.26539  -0.23670  -0.23076  -0.22411  -0.20045
 Alpha  occ. eigenvalues --   -0.18350  -0.17187  -0.15436  -0.13404  -0.10705
 Alpha  occ. eigenvalues --   -0.06380   0.04494
 Alpha virt. eigenvalues --    0.08186   0.08781   0.10506   0.11262   0.11454
 Alpha virt. eigenvalues --    0.11670   0.13000   0.13374   0.13886   0.15080
 Alpha virt. eigenvalues --    0.15525   0.15913   0.16358   0.16907   0.17567

  Beta  occ. eigenvalues --  -18.95799 -14.22306 -14.21156 -14.15572 -10.16663
  Beta  occ. eigenvalues --  -10.04702 -10.03353 -10.01876 -10.00658 -10.00174
  Beta  occ. eigenvalues --   -9.99912  -0.92704  -0.84069  -0.78321  -0.68464
  Beta  occ. eigenvalues --   -0.65583  -0.61115  -0.55239  -0.50581  -0.46226
  Beta  occ. eigenvalues --   -0.42906  -0.41004  -0.39316  -0.37490  -0.34997
  Beta  occ. eigenvalues --   -0.31738  -0.30651  -0.30199  -0.29012  -0.28961
  Beta  occ. eigenvalues --   -0.26385  -0.23019  -0.22433  -0.21761  -0.19803
  Beta  occ. eigenvalues --   -0.17675  -0.16215  -0.15166  -0.12478  -0.09801
  Beta  occ. eigenvalues --   -0.04210
  Beta virt. eigenvalues --    0.08154   0.08776   0.10460   0.10782   0.11299
  Beta virt. eigenvalues --    0.11569   0.11758   0.12998   0.13356   0.13902
  Beta virt. eigenvalues --    0.15473   0.16000   0.16181   0.16629   0.17022

 Mulliken charges and spin densities:
               1          2
     1  C   -0.694498  -0.021097
     2  C    0.037637   0.326274
     3  C   -0.158700  -0.048778
     4  C   -0.166585   0.253804
     5  C    0.076069   0.082892
     6  C   -0.570774   0.090358
     7  N   -0.118173   0.274607
     8  N   -0.194202  -0.022009
     9  C    0.158035   0.032691
    10  O   -0.424710   0.025235
    11  N   -0.454894   0.006948
    12  H    0.119969   0.000891
    13  H    0.096831   0.019458
    14  H    0.096632   0.020203
    15  H    0.103473  -0.022058
    16  H    0.018174   0.000544
    17  H    0.025874  -0.014348
    18  H    0.137377  -0.005530
    19  H    0.109855  -0.008223
    20  H    0.274928   0.011901
    21  H    0.265572  -0.005392
    22  H    0.262110   0.001628
 Sum of Mulliken charges =  -1.00000   1.00000

 Dipole moment (field-independent basis, Debye):
    X=              0.9553    Y=              1.7878    Z=              1.4979  Tot=              2.5204
 Quadrupole moment (field-independent basis, Debye-Ang):
   XX=           -141.3846   YY=            -71.3277   ZZ=            -74.4252
   XY=             -2.5188   XZ=             -4.5627   YZ=              1.1885

 Summary of Natural Population Analysis:

                                       Natural Population
                Natural  -----------------------------------------------
    Atom  No    Charge         Core      Valence    Rydberg      Total
 -----------------------------------------------------------------------
      C    1   -0.30048      0.99967     2.29644    0.00437     3.30048
      C    2   -0.00538      0.99956     1.99644    0.00939     3.00538
      C    3   -0.13423      0.99952     2.12515    0.00956     3.13423
      C    4   -0.03676      0.99953     2.02772    0.00951     3.03676
      C    5   -0.10565      0.99953     2.09556    0.01057     3.10565
      C    6    0.02057      0.99962     1.96517    0.01464     2.97943
      N    7   -0.07904      0.99966     2.56091    0.01847     3.57904
      N    8   -0.23691      0.99968     2.72463    0.01260     3.73691
      C    9    0.39695      0.99975     1.57984    0.02346     2.60305
      O   10   -0.34518      0.99987     3.33870    0.00661     4.34518
      N   11   -0.42266      0.99971     2.91486    0.00809     3.92266
      H   12    0.09292      0.00000     0.40606    0.00102     0.40708
      H   13    0.09461      0.00000     0.40413    0.00126     0.40539
      H   14    0.09482      0.00000     0.40392    0.00126     0.40518
      H   15    0.07482      0.00000     0.42349    0.00169     0.42518
      H   16    0.08276      0.00000     0.41568    0.00156     0.41724
      H   17    0.07876      0.00000     0.41953    0.00171     0.42124
      H   18    0.08799      0.00000     0.41023    0.00178     0.41201
      H   19    0.07275      0.00000     0.42493    0.00233     0.42725
      H   20    0.18730      0.00000     0.30950    0.00320     0.31270
      H   21    0.19513      0.00000     0.30331    0.00155     0.30487
      H   22    0.18691      0.00000     0.31154    0.00155     0.31309
 =======================================================================
   * Total *   -0.00000     10.99609    29.85774    0.14617    41.00000

 Normal termination of Gaussian 16 at Tue Dec  8 20:19:32 2020.
