 Gaussian 16, Revision A.03,

 -----------------------------------------------------------
 # opt freq B3LYP/6-31G(d) empiricaldispersion=gd3bj scf=xqc
 -----------------------------------------------------------

 -------------------------------
 CID_130859473_JID_3477_neutraal
 -------------------------------
 Symbolic Z-matrix:
 Charge =  0 Multiplicity = 1

 SCF Done:  E(RB3LYP) =  -593.925396662     A.U. after   13 cycles
 SCF Done:  E(RB3LYP) =  -593.928334950     A.U. after   12 cycles
 SCF Done:  E(RB3LYP) =  -593.921289392     A.U. after   13 cycles
 SCF Done:  E(RB3LYP) =  -593.925477967     A.U. after   12 cycles
 SCF Done:  E(RB3LYP) =  -593.928939750     A.U. after   10 cycles
 SCF Done:  E(RB3LYP) =  -593.930517067     A.U. after   11 cycles
 SCF Done:  E(RB3LYP) =  -593.930959770     A.U. after   11 cycles
 SCF Done:  E(RB3LYP) =  -593.931150142     A.U. after   11 cycles
 SCF Done:  E(RB3LYP) =  -593.931427191     A.U. after   11 cycles
 SCF Done:  E(RB3LYP) =  -593.930849575     A.U. after   13 cycles
 SCF Done:  E(RB3LYP) =  -593.931887628     A.U. after    9 cycles
 SCF Done:  E(RB3LYP) =  -593.931889309     A.U. after    8 cycles
 SCF Done:  E(RB3LYP) =  -593.931890046     A.U. after    7 cycles
 SCF Done:  E(RB3LYP) =  -593.931890539     A.U. after    8 cycles
 SCF Done:  E(RB3LYP) =  -593.931890715     A.U. after    7 cycles
 SCF Done:  E(RB3LYP) =  -593.931890820     A.U. after    7 cycles
 Optimization completed.
    -- Stationary point found.
 Normal termination of Gaussian 16 at Wed Dec  9 23:29:00 2020.

 --------------------------------------------------------------------
 #N Geom=AllCheck Guess=TCheck SCRF=Check GenChk RB3LYP/6-31G(d) Freq
 --------------------------------------------------------------------

 Structure from the checkpoint file:  "JID_3477.chk"
 -------------------------------
 CID_130859473_JID_3477_neutraal
 -------------------------------
 Charge =  0 Multiplicity = 1

 SCF Done:  E(RB3LYP) =  -593.931890820     A.U. after    1 cycles

  Exact polarizability: 145.420   3.120 110.131  -2.775  -6.352  97.951
 Approx polarizability: 171.702   4.015 166.005  -6.142 -19.813 148.123

                      1                      2                      3
                      A                      A                      A
 Frequencies --     48.5252                55.9383                66.5329
 Red. masses --      3.4491                 3.2678                 2.2351
 Frc consts  --      0.0048                 0.0060                 0.0058
 IR Inten    --      0.1202                 1.1121                 0.8935

                      4                      5                      6
                      A                      A                      A
 Frequencies --    109.4831               136.1484               148.4559
 Red. masses --      2.4191                 2.6667                 3.5109
 Frc consts  --      0.0171                 0.0291                 0.0456
 IR Inten    --      0.7658                 1.3840                 1.9523

                      7                      8                      9
                      A                      A                      A
 Frequencies --    199.3002               225.9276               242.3889
 Red. masses --      1.9884                 3.7880                 1.3264
 Frc consts  --      0.0465                 0.1139                 0.0459
 IR Inten    --      0.9351                 6.2122                 0.2158

                     10                     11                     12
                      A                      A                      A
 Frequencies --    253.4605               288.1284               295.0697
 Red. masses --      1.4286                 3.9165                 2.2345
 Frc consts  --      0.0541                 0.1916                 0.1146
 IR Inten    --      0.0978                 0.4945                 0.6673

                     13                     14                     15
                      A                      A                      A
 Frequencies --    325.7536               337.8747               412.3023
 Red. masses --      2.9372                 2.0261                 2.7655
 Frc consts  --      0.1836                 0.1363                 0.2770
 IR Inten    --      1.6760                14.2670                10.2719

                     16                     17                     18
                      A                      A                      A
 Frequencies --    444.5635               466.4539               499.7146
 Red. masses --      2.6294                 2.3888                 2.0999
 Frc consts  --      0.3062                 0.3062                 0.3089
 IR Inten    --     37.8805                42.9909                55.6227

                     19                     20                     21
                      A                      A                      A
 Frequencies --    515.6606               556.0832               593.0427
 Red. masses --      2.5961                 1.8161                 1.9715
 Frc consts  --      0.4067                 0.3309                 0.4085
 IR Inten    --     15.8340                51.2170                71.8739

                     22                     23                     24
                      A                      A                      A
 Frequencies --    651.7417               697.0822               723.0748
 Red. masses --      2.7995                 3.4252                 1.1936
 Frc consts  --      0.7006                 0.9806                 0.3677
 IR Inten    --      5.8255                 0.9055                69.9312

                     25                     26                     27
                      A                      A                      A
 Frequencies --    753.5398               763.1478               849.9578
 Red. masses --      2.4085                 1.6810                 1.6478
 Frc consts  --      0.8058                 0.5768                 0.7014
 IR Inten    --     34.7924                 4.8910                12.0303

                     28                     29                     30
                      A                      A                      A
 Frequencies --    858.7058               905.5041               918.2750
 Red. masses --      3.7728                 1.4999                 2.0784
 Frc consts  --      1.6391                 0.7246                 1.0326
 IR Inten    --      5.6218                 0.1788                 0.3725

                     31                     32                     33
                      A                      A                      A
 Frequencies --    929.4948               956.5434               982.6388
 Red. masses --      1.8236                 1.7692                 2.1141
 Frc consts  --      0.9283                 0.9538                 1.2027
 IR Inten    --      6.3646                 5.2642                 5.6591

                     34                     35                     36
                      A                      A                      A
 Frequencies --   1002.1037              1037.6657              1048.5950
 Red. masses --      2.4417                 1.8355                 1.9693
 Frc consts  --      1.4446                 1.1645                 1.2758
 IR Inten    --      9.2448                 8.5631                15.5712

                     37                     38                     39
                      A                      A                      A
 Frequencies --   1070.5258              1118.0916              1124.1694
 Red. masses --      2.7676                 2.2860                 2.5534
 Frc consts  --      1.8688                 1.6838                 1.9012
 IR Inten    --      3.3583                 4.7439                18.3074

                     40                     41                     42
                      A                      A                      A
 Frequencies --   1144.6942              1162.8150              1171.4535
 Red. masses --      1.8653                 2.3336                 2.2419
 Frc consts  --      1.4400                 1.8591                 1.8126
 IR Inten    --      4.2135                10.3448                43.5062

                     43                     44                     45
                      A                      A                      A
 Frequencies --   1197.2640              1217.1836              1223.6054
 Red. masses --      2.7487                 2.4604                 1.2778
 Frc consts  --      2.3214                 2.1476                 1.1272
 IR Inten    --     23.9350                27.4138                 6.4639

                     46                     47                     48
                      A                      A                      A
 Frequencies --   1248.8031              1281.5245              1296.0412
 Red. masses --      1.3479                 1.4368                 1.3782
 Frc consts  --      1.2385                 1.3902                 1.3640
 IR Inten    --      9.3550                44.7979                52.0351

                     49                     50                     51
                      A                      A                      A
 Frequencies --   1317.6887              1331.5816              1355.0523
 Red. masses --      1.2156                 1.2630                 1.2904
 Frc consts  --      1.2436                 1.3194                 1.3960
 IR Inten    --      4.6685                18.7815                 6.5568

                     52                     53                     54
                      A                      A                      A
 Frequencies --   1368.3982              1372.1052              1391.6533
 Red. masses --      1.3972                 1.3342                 1.3954
 Frc consts  --      1.5414                 1.4799                 1.5922
 IR Inten    --     10.8496                17.2332                 3.3244

                     55                     56                     57
                      A                      A                      A
 Frequencies --   1397.0103              1406.2976              1419.1262
 Red. masses --      1.3210                 1.4292                 1.4606
 Frc consts  --      1.5189                 1.6654                 1.7331
 IR Inten    --      9.4532                23.3372                79.5865

                     58                     59                     60
                      A                      A                      A
 Frequencies --   1432.6048              1446.4317              1507.1430
 Red. masses --      1.3208                 1.2569                 1.2020
 Frc consts  --      1.5972                 1.5493                 1.6086
 IR Inten    --     12.7301                 8.2631                 7.5016

                     61                     62                     63
                      A                      A                      A
 Frequencies --   1510.8037              1514.6612              1521.9476
 Red. masses --      1.0833                 1.2078                 1.0716
 Frc consts  --      1.4568                 1.6326                 1.4624
 IR Inten    --     21.9018                26.0792                 1.4898

                     64                     65                     66
                      A                      A                      A
 Frequencies --   1529.1947              1530.6488              1532.3952
 Red. masses --      1.0684                 1.0806                 1.0623
 Frc consts  --      1.4720                 1.4917                 1.4697
 IR Inten    --     14.7652                 5.8752                 2.0252

                     67                     68                     69
                      A                      A                      A
 Frequencies --   1539.1379              1545.9821              1561.3166
 Red. masses --      1.0714                 1.2076                 1.1455
 Frc consts  --      1.4954                 1.7005                 1.6452
 IR Inten    --      4.3379                90.1328                66.1434

                     70                     71                     72
                      A                      A                      A
 Frequencies --   1573.6822              1724.0034              2997.7531
 Red. masses --      1.7688                 6.0970                 1.0719
 Frc consts  --      2.5809                10.6768                 5.6754
 IR Inten    --    229.1667               239.2267                27.3737

                     73                     74                     75
                      A                      A                      A
 Frequencies --   3005.9657              3021.6389              3038.7601
 Red. masses --      1.0726                 1.0650                 1.0452
 Frc consts  --      5.7104                 5.7291                 5.6864
 IR Inten    --    112.4934                15.4748                31.3617

                     76                     77                     78
                      A                      A                      A
 Frequencies --   3045.9577              3054.1502              3058.1021
 Red. masses --      1.0755                 1.0415                 1.0637
 Frc consts  --      5.8789                 5.7239                 5.8611
 IR Inten    --     42.7103                54.7730                 8.0634

                     79                     80                     81
                      A                      A                      A
 Frequencies --   3067.9349              3077.4429              3081.6698
 Red. masses --      1.0925                 1.0917                 1.0885
 Frc consts  --      6.0582                 6.0919                 6.0903
 IR Inten    --     14.7145                52.7506                18.5144

                     82                     83                     84
                      A                      A                      A
 Frequencies --   3082.1460              3107.2559              3109.9926
 Red. masses --      1.0887                 1.1056                 1.0948
 Frc consts  --      6.0936                 6.2892                 6.2391
 IR Inten    --     63.6728                47.1134                35.9315

                     85                     86                     87
                      A                      A                      A
 Frequencies --   3117.5347              3127.5626              3136.3478
 Red. masses --      1.1024                 1.1013                 1.1021
 Frc consts  --      6.3125                 6.3471                 6.3872
 IR Inten    --     42.1585                33.4785                36.0328

                     88                     89                     90
                      A                      A                      A
 Frequencies --   3376.2277              3567.5652              3585.1177
 Red. masses --      1.0678                 1.0748                 1.0755
 Frc consts  --      7.1712                 8.0596                 8.1445
 IR Inten    --    649.9029                 7.5889                10.2586

 - Thermochemistry -
 -------------------
 Temperature   298.150 Kelvin.  Pressure   1.00000 Atm.
 Atom     1 has atomic number  6 and mass  12.00000

 Molecular mass:   185.15281 amu.
 Principal axes and moments of inertia in atomic units:
                           1         2         3
     Eigenvalues --  1270.232653958.772464446.46793
           X            0.99993   0.01194  -0.00074
           Y           -0.01191   0.99958   0.02640
           Z            0.00105  -0.02639   0.99965
 This molecule is an asymmetric top.
 Rotational symmetry number  1.
 Warning -- assumption of classical behavior for rotation
           may cause significant error
 Rotational temperatures (Kelvin)      0.06819     0.02188     0.01948
 Rotational constants (GHZ):           1.42080     0.45588     0.40588
 Zero-point vibrational energy     759886.1 (Joules/Mol)
                                  181.61715 (Kcal/Mol)
 Warning -- explicit consideration of  21 degrees of freedom as
           vibrations may cause significant error
 Vibrational temperatures:     69.82    80.48    95.73   157.52   195.89
          (Kelvin)            213.59   286.75   325.06   348.74   364.67
                              414.55   424.54   468.69   486.13   593.21
                              639.63   671.12   718.98   741.92   800.08
                              853.26   937.71  1002.95  1040.34  1084.18
                             1098.00  1222.90  1235.49  1302.82  1321.19
                             1337.34  1376.25  1413.80  1441.80  1492.97
                             1508.69  1540.25  1608.68  1617.43  1646.96
                             1673.03  1685.46  1722.60  1751.26  1760.50
                             1796.75  1843.83  1864.71  1895.86  1915.85
                             1949.62  1968.82  1974.15  2002.28  2009.99
                             2023.35  2041.81  2061.20  2081.09  2168.44
                             2173.71  2179.26  2189.74  2200.17  2202.26
                             2204.77  2214.48  2224.32  2246.39  2264.18
                             2480.46  4313.10  4324.91  4347.46  4372.10
                             4382.45  4394.24  4399.93  4414.07  4427.75
                             4433.84  4434.52  4470.65  4474.59  4485.44
                             4499.87  4512.50  4857.64  5132.93  5158.18

 Zero-point correction=                           0.289425 (Hartree/Particle)
 Thermal correction to Energy=                    0.303390
 Thermal correction to Enthalpy=                  0.304334
 Thermal correction to Gibbs Free Energy=         0.248830
 Sum of electronic and zero-point Energies=           -593.642465
 Sum of electronic and thermal Energies=              -593.628501
 Sum of electronic and thermal Enthalpies=            -593.627556
 Sum of electronic and thermal Free Energies=         -593.683060

                     E (Thermal)             CV                S
                      KCal/Mol        Cal/Mol-Kelvin    Cal/Mol-Kelvin
 Total                  190.380             53.224            116.818
 Electronic               0.000              0.000              0.000
 Translational            0.889              2.981             41.554
 Rotational               0.889              2.981             31.481
 Vibrational            188.603             47.263             43.783
 Vibration     1          0.595              1.978              4.877
 Vibration     2          0.596              1.975              4.596
 Vibration     3          0.598              1.970              4.253
 Vibration     4          0.606              1.942              3.278
 Vibration     5          0.614              1.917              2.857
 Vibration     6          0.618              1.904              2.692
 Vibration     7          0.637              1.841              2.140
 Vibration     8          0.650              1.802              1.911
 Vibration     9          0.659              1.775              1.785
 Vibration    10          0.665              1.757              1.706
 Vibration    11          0.685              1.696              1.485
 Vibration    12          0.689              1.683              1.445
 Vibration    13          0.710              1.624              1.281
 Vibration    14          0.718              1.600              1.222
 Vibration    15          0.776              1.444              0.919
 Vibration    16          0.804              1.373              0.812
 Vibration    17          0.824              1.324              0.748
 Vibration    18          0.855              1.251              0.659
 Vibration    19          0.871              1.215              0.620
 Vibration    20          0.912              1.126              0.532
 Vibration    21          0.951              1.047              0.462

 Optimization completed.
    -- Stationary point found.
 Normal termination of Gaussian 16 at Wed Dec  9 23:37:06 2020.

 ----------------------------------------------------------------------
 # B3LYP/6-311++G(d,p) empiricaldispersion=gd3bj scf=xqc pop=npa geom=c
 heck
 ----------------------------------------------------------------------

 ---------------------------------------
 CID_130859473_JID_3477_Energie_neutraal
 ---------------------------------------
 Structure from the checkpoint file:  "JID_3477.chk"
 Charge =  0 Multiplicity = 1

 SCF Done:  E(RB3LYP) =  -594.114215233     A.U. after   14 cycles
 Normal termination of Gaussian 16 at Wed Dec  9 23:40:50 2020.

 ----------------------------------------------------------------------
 # B3LYP/6-311++G(d,p) empiricaldispersion=gd3bj scf=xqc pop=npa geom=c
 heck
 ----------------------------------------------------------------------

 -------------------------------------
 CID_130859473_JID_3477_Energie_kation
 -------------------------------------
 Structure from the checkpoint file:  "JID_3477.chk"
 Charge =  1 Multiplicity = 2

 SCF Done:  E(UB3LYP) =  -593.819856314     A.U. after   26 cycles
 Normal termination of Gaussian 16 at Wed Dec  9 23:50:37 2020.
 Gaussian 16:  ES64L-G16RevA.03 25-Dec-2016

 ----------------------------------------------------------------------
 # B3LYP/6-311++G(d,p) empiricaldispersion=gd3bj scf=xqc pop=npa geom=c
 heck
 ----------------------------------------------------------------------

 ------------------------------------
 CID_130859473_JID_3477_Energie_anion
 ------------------------------------
 Structure from the checkpoint file:  "JID_3477.chk"
 Charge = -1 Multiplicity = 2

                         Standard orientation:
 ---------------------------------------------------------------------
 Center     Atomic      Atomic             Coordinates (Angstroms)
 Number     Number       Type             X           Y           Z
 ---------------------------------------------------------------------
      1          6           0       -3.956580   -0.931377   -0.862780
      2          6           0       -2.712746   -1.258643   -0.033220
      3          6           0       -1.529142   -0.306092   -0.275056
      4          6           0       -1.774828    1.119722    0.299779
      5          6           0       -1.415954    1.227612    1.786345
      6          8           0       -1.119581    2.112424   -0.463506
      7          7           0       -0.324453   -0.981471    0.227352
      8          6           0        0.955096   -0.513882   -0.012762
      9          7           0        1.166502    0.564362   -0.688730
     10          6           0        2.546584    0.907583   -1.017558
     11          6           0        3.546716    0.409352    0.029306
     12          6           0        3.336549   -1.085944    0.250895
     13          7           0        1.929309   -1.322160    0.565594
     14          1           0       -4.358034    0.060099   -0.630640
     15          1           0       -4.750365   -1.662382   -0.674503
     16          1           0       -3.726706   -0.952894   -1.934305
     17          1           0       -2.970481   -1.256282    1.036465
     18          1           0       -2.379120   -2.276124   -0.271003
     19          1           0       -1.388840   -0.182407   -1.354474
     20          1           0       -2.846643    1.330144    0.194296
     21          1           0       -0.338917    1.095927    1.934322
     22          1           0       -1.685257    2.222638    2.152041
     23          1           0       -1.946065    0.483671    2.396403
     24          1           0       -0.216118    1.750133   -0.637470
     25          1           0       -0.434579   -1.396023    1.145784
     26          1           0        2.608702    1.997308   -1.110971
     27          1           0        2.806847    0.497455   -2.006014
     28          1           0        3.382046    0.943138    0.972892
     29          1           0        4.578348    0.597834   -0.287362
     30          1           0        3.639504   -1.638434   -0.652514
     31          1           0        3.947914   -1.452538    1.083155
     32          1           0        1.660745   -2.295769    0.632739
 ---------------------------------------------------------------------

 SCF Done:  E(UB3LYP) =  -594.104010057     A.U. after   28 cycles

 The electronic state is 2-A.
 Alpha  occ. eigenvalues --  -18.98656 -14.22055 -14.21988 -14.17463 -10.16503
 Alpha  occ. eigenvalues --  -10.11187 -10.10494 -10.09871 -10.09204 -10.07575
 Alpha  occ. eigenvalues --  -10.07364 -10.06976 -10.05654  -0.90107  -0.88348
 Alpha  occ. eigenvalues --   -0.80347  -0.77046  -0.70061  -0.66612  -0.63997
 Alpha  occ. eigenvalues --   -0.59024  -0.57355  -0.52960  -0.51859  -0.47898
 Alpha  occ. eigenvalues --   -0.44852  -0.43356  -0.40418  -0.38933  -0.38373
 Alpha  occ. eigenvalues --   -0.36217  -0.34816  -0.33832  -0.33578  -0.32410
 Alpha  occ. eigenvalues --   -0.32103  -0.30494  -0.29410  -0.28303  -0.27571
 Alpha  occ. eigenvalues --   -0.27059  -0.27006  -0.25656  -0.25107  -0.23965
 Alpha  occ. eigenvalues --   -0.23694  -0.21623  -0.15902  -0.15387  -0.13958
 Alpha  occ. eigenvalues --   -0.12282   0.04289
 Alpha virt. eigenvalues --    0.06302   0.07306   0.07804   0.08718   0.09002
 Alpha virt. eigenvalues --    0.09373   0.10443   0.10681   0.10725   0.11313
 Alpha virt. eigenvalues --    0.11791   0.12066   0.12820   0.13610   0.14362

  Beta  occ. eigenvalues --  -18.98653 -14.22019 -14.21962 -14.17459 -10.16502
  Beta  occ. eigenvalues --  -10.11184 -10.10493 -10.09828 -10.09195 -10.07553
  Beta  occ. eigenvalues --  -10.07353 -10.06960 -10.05638  -0.90095  -0.88314
  Beta  occ. eigenvalues --   -0.80305  -0.77004  -0.70032  -0.66569  -0.63975
  Beta  occ. eigenvalues --   -0.58996  -0.57295  -0.52914  -0.51809  -0.47856
  Beta  occ. eigenvalues --   -0.44788  -0.43268  -0.40399  -0.38880  -0.38343
  Beta  occ. eigenvalues --   -0.36192  -0.34787  -0.33784  -0.33563  -0.32376
  Beta  occ. eigenvalues --   -0.32068  -0.30466  -0.29364  -0.28266  -0.27534
  Beta  occ. eigenvalues --   -0.27039  -0.26989  -0.25632  -0.25063  -0.23932
  Beta  occ. eigenvalues --   -0.23663  -0.21606  -0.15881  -0.15372  -0.13917
  Beta  occ. eigenvalues --   -0.12260
  Beta virt. eigenvalues --    0.06513   0.07154   0.07964   0.08479   0.09157
  Beta virt. eigenvalues --    0.09427   0.09685   0.10776   0.10973   0.11036
  Beta virt. eigenvalues --    0.11859   0.11924   0.12448   0.12959   0.13779

 Mulliken charges and spin densities:
               1          2
     1  C    0.107501  -0.727919
     2  C   -0.230083  -0.016651
     3  C    0.148271  -0.472974
     4  C   -0.377106   0.194206
     5  C   -0.006396  -0.579964
     6  O   -0.247569  -0.000309
     7  N   -0.154623   0.117364
     8  C    0.428298  -0.489989
     9  N   -0.146364  -0.017717
    10  C    0.606745  -0.925040
    11  C   -0.506476   0.299913
    12  C    1.196798  -1.520500
    13  N   -0.491945   0.391323
    14  H    0.079799   0.036173
    15  H   -0.118292   0.263207
    16  H    0.071639   0.056403
    17  H   -0.196015   0.340142
    18  H   -0.089660   0.265440
    19  H    0.201624   0.064887
    20  H    0.115376   0.049330
    21  H    0.032596   0.160032
    22  H    0.081826   0.057724
    23  H    0.032086   0.083126
    24  H    0.359147  -0.013053
    25  H   -0.179229   0.448559
    26  H    0.081683   0.071557
    27  H   -0.026295   0.171757
    28  H    0.173831  -0.043116
    29  H   -0.266949   0.434330
    30  H   -0.265596   0.431880
    31  H   -0.908770   1.089365
    32  H   -0.505851   0.780514
 Sum of Mulliken charges =  -1.00000   1.00000

 Dipole moment (field-independent basis, Debye):
    X=             -4.3583    Y=              4.5873    Z=             -1.5871  Tot=              6.5236
 Quadrupole moment (field-independent basis, Debye-Ang):
   XX=           -150.2498   YY=           -132.5839   ZZ=           -113.1841
   XY=             12.0557   XZ=             -2.7110   YZ=              8.2434

 Summary of Natural Population Analysis:

                                       Natural Population
                Natural  -----------------------------------------------
    Atom  No    Charge         Core      Valence    Rydberg      Total
 -----------------------------------------------------------------------
      C    1   -0.28447      0.99966     2.27946    0.00535     3.28447
      C    2   -0.19347      0.99962     2.18488    0.00897     3.19347
      C    3   -0.01852      0.99956     2.00528    0.01368     3.01852
      C    4    0.05828      0.99955     1.92721    0.01496     2.94172
      C    5   -0.30105      0.99964     2.29504    0.00638     3.30105
      O    6   -0.39478      0.99989     3.38805    0.00684     4.39478
      N    7   -0.32883      0.99967     2.81660    0.01256     3.82883
      C    8    0.32521      0.99957     1.65830    0.01692     2.67479
      N    9   -0.33616      0.99963     2.82486    0.01167     3.83616
      C   10   -0.08851      0.99961     2.07736    0.01154     3.08851
      C   11   -0.20243      0.99963     2.19466    0.00815     3.20243
      C   12   -0.08167      0.99962     2.07023    0.01182     3.08167
      N   13   -0.32905      0.99968     2.81768    0.01170     3.82905
      H   14    0.09557      0.00000     0.40346    0.00097     0.40443
      H   15    0.09901      0.00000     0.40025    0.00074     0.40099
      H   16    0.09655      0.00000     0.40264    0.00081     0.40345
      H   17    0.09481      0.00000     0.40375    0.00144     0.40519
      H   18    0.10400      0.00000     0.39457    0.00142     0.39600
      H   19    0.10325      0.00000     0.39478    0.00198     0.39675
      H   20    0.07902      0.00000     0.41884    0.00213     0.42098
      H   21    0.10246      0.00000     0.39635    0.00119     0.39754
      H   22    0.10054      0.00000     0.39862    0.00084     0.39946
      H   23    0.09557      0.00000     0.40337    0.00107     0.40443
      H   24    0.24804      0.00000     0.24849    0.00347     0.25196
      H   25    0.19147      0.00000     0.30409    0.00444     0.30853
      H   26    0.09137      0.00000     0.40742    0.00120     0.40863
      H   27    0.08803      0.00000     0.41067    0.00129     0.41197
      H   28    0.09734      0.00000     0.40140    0.00126     0.40266
      H   29    0.10302      0.00000     0.39578    0.00120     0.39698
      H   30    0.08697      0.00000     0.41016    0.00287     0.41303
      H   31    0.09994      0.00000     0.39669    0.00338     0.40006
      H   32    0.19850      0.00000     0.29148    0.01002     0.30150
 =======================================================================
   * Total *    0.00000     12.99533    37.82241    0.18226    51.00000

 Normal termination of Gaussian 16 at Thu Dec 10 00:01:05 2020.
