 Gaussian 16, Revision A.03,

 -----------------------------------------------------------
 # opt freq B3LYP/6-31G(d) empiricaldispersion=gd3bj scf=xqc
 -----------------------------------------------------------

 -------------------------------
 CID_151146625_JID_5593_neutraal
 -------------------------------
 Symbolic Z-matrix:
 Charge =  0 Multiplicity = 1

 SCF Done:  E(RB3LYP) =  -647.805532507     A.U. after   15 cycles
 SCF Done:  E(RB3LYP) =  -647.811068876     A.U. after   15 cycles
 SCF Done:  E(RB3LYP) =  -647.811749106     A.U. after   13 cycles
 SCF Done:  E(RB3LYP) =  -647.812400578     A.U. after   13 cycles
 SCF Done:  E(RB3LYP) =  -647.812767290     A.U. after   13 cycles
 SCF Done:  E(RB3LYP) =  -647.813275024     A.U. after   13 cycles
 SCF Done:  E(RB3LYP) =  -647.814378802     A.U. after   16 cycles
 SCF Done:  E(RB3LYP) =  -647.815724858     A.U. after   16 cycles
 SCF Done:  E(RB3LYP) =  -647.815878585     A.U. after   13 cycles
 SCF Done:  E(RB3LYP) =  -647.816427789     A.U. after   11 cycles
 SCF Done:  E(RB3LYP) =  -647.816823106     A.U. after   10 cycles
 SCF Done:  E(RB3LYP) =  -647.816827391     A.U. after    9 cycles
 SCF Done:  E(RB3LYP) =  -647.816828439     A.U. after    9 cycles
 SCF Done:  E(RB3LYP) =  -647.816828934     A.U. after    8 cycles
 SCF Done:  E(RB3LYP) =  -647.816828898     A.U. after    7 cycles
 Optimization completed.
    -- Stationary point found.
 Normal termination of Gaussian 16 at Thu Dec 10 16:44:10 2020.

 --------------------------------------------------------------------
 #N Geom=AllCheck Guess=TCheck SCRF=Check GenChk RB3LYP/6-31G(d) Freq
 --------------------------------------------------------------------

 Structure from the checkpoint file:  "JID_5593.chk"
 -------------------------------
 CID_151146625_JID_5593_neutraal
 -------------------------------
 Charge =  0 Multiplicity = 1

 SCF Done:  E(RB3LYP) =  -647.816828898     A.U. after    1 cycles

  Exact polarizability: 173.951   3.768 193.902   0.705   0.292  81.037
 Approx polarizability: 250.336   1.839 347.748   0.183  -1.072 119.710

                      1                      2                      3
                      A                      A                      A
 Frequencies --     25.8189                54.5332                76.8654
 Red. masses --      3.1564                 5.5672                 3.7500
 Frc consts  --      0.0012                 0.0098                 0.0131
 IR Inten    --      0.0361                 0.2068                 0.3788

                      4                      5                      6
                      A                      A                      A
 Frequencies --    120.6101               147.9562               182.7476
 Red. masses --      8.1915                 3.4015                 1.1106
 Frc consts  --      0.0702                 0.0439                 0.0219
 IR Inten    --      0.7668                 1.5172                 1.3098

                      7                      8                      9
                      A                      A                      A
 Frequencies --    197.5003               208.2059               232.8912
 Red. masses --      3.9882                 2.2780                 1.2292
 Frc consts  --      0.0917                 0.0582                 0.0393
 IR Inten    --      0.4482                 1.6841                 0.5320

                     10                     11                     12
                      A                      A                      A
 Frequencies --    260.2470               267.6859               291.3059
 Red. masses --      1.9710                 1.4333                 1.9562
 Frc consts  --      0.0787                 0.0605                 0.0978
 IR Inten    --      1.4007                 0.5230                 7.5682

                     13                     14                     15
                      A                      A                      A
 Frequencies --    316.6093               335.2455               336.6980
 Red. masses --      1.3140                 3.1226                 2.8489
 Frc consts  --      0.0776                 0.2068                 0.1903
 IR Inten    --     18.1539                 1.4791                 4.0440

                     16                     17                     18
                      A                      A                      A
 Frequencies --    347.7359               366.5747               390.5954
 Red. masses --      3.3469                 1.1463                 2.2656
 Frc consts  --      0.2384                 0.0908                 0.2037
 IR Inten    --      0.5493                 2.2799                 1.6112

                     19                     20                     21
                      A                      A                      A
 Frequencies --    421.5476               423.3579               448.5251
 Red. masses --      3.2463                 2.6475                 7.3625
 Frc consts  --      0.3399                 0.2796                 0.8727
 IR Inten    --      6.0677                 0.3998                 1.4985

                     22                     23                     24
                      A                      A                      A
 Frequencies --    500.6380               528.4156               530.7688
 Red. masses --      3.8137                 3.0346                 9.7805
 Frc consts  --      0.5632                 0.4992                 1.6234
 IR Inten    --      0.5162                 0.2258                10.2723

                     25                     26                     27
                      A                      A                      A
 Frequencies --    580.8299               625.3138               648.2411
 Red. masses --      3.7997                 2.0781                 3.2284
 Frc consts  --      0.7553                 0.4787                 0.7993
 IR Inten    --      9.8052               234.4393                17.2657

                     28                     29                     30
                      A                      A                      A
 Frequencies --    670.5498               698.1300               733.9911
 Red. masses --      6.3207                 2.8610                 3.7304
 Frc consts  --      1.6745                 0.8216                 1.1841
 IR Inten    --     10.1374               135.3526                 1.6064

                     31                     32                     33
                      A                      A                      A
 Frequencies --    765.0328               822.7309               867.1683
 Red. masses --      6.7975                 3.4158                 2.8569
 Frc consts  --      2.3440                 1.3623                 1.2658
 IR Inten    --      7.8102                 1.9799                 7.4585

                     34                     35                     36
                      A                      A                      A
 Frequencies --    879.0935               883.3126               938.9098
 Red. masses --      1.4312                 1.4176                 1.7956
 Frc consts  --      0.6517                 0.6517                 0.9326
 IR Inten    --      1.8714                27.4724                 0.7367

                     37                     38                     39
                      A                      A                      A
 Frequencies --    952.4520               978.8941              1036.9422
 Red. masses --      1.7443                 1.1973                 1.7383
 Frc consts  --      0.9323                 0.6759                 1.1012
 IR Inten    --      1.3488                 0.2537                12.0624

                     40                     41                     42
                      A                      A                      A
 Frequencies --   1047.9832              1065.5123              1065.9611
 Red. masses --      3.2878                 1.3861                 1.3923
 Frc consts  --      2.1275                 0.9271                 0.9321
 IR Inten    --     10.2224                 0.5161                 0.9950

                     43                     44                     45
                      A                      A                      A
 Frequencies --   1073.3424              1125.7003              1187.8087
 Red. masses --      1.4740                 1.6180                 2.1607
 Frc consts  --      1.0005                 1.2080                 1.7961
 IR Inten    --      1.9403                 5.8105                 5.2201

                     46                     47                     48
                      A                      A                      A
 Frequencies --   1223.4594              1239.6774              1248.5260
 Red. masses --      2.6948                 2.6242                 3.0375
 Frc consts  --      2.3766                 2.3761                 2.7897
 IR Inten    --     12.9534                 4.4130                 1.1074

                     49                     50                     51
                      A                      A                      A
 Frequencies --   1283.2112              1313.1615              1340.6699
 Red. masses --      2.5014                 2.4395                 1.6392
 Frc consts  --      2.4267                 2.4785                 1.7359
 IR Inten    --     19.7039                66.8099                25.2998

                     52                     53                     54
                      A                      A                      A
 Frequencies --   1363.1253              1392.9431              1428.4016
 Red. masses --      6.9390                 9.4655                 1.2068
 Frc consts  --      7.5966                10.8208                 1.4507
 IR Inten    --     17.7445                47.0234                 3.8484

                     55                     56                     57
                      A                      A                      A
 Frequencies --   1432.4215              1437.1560              1453.0901
 Red. masses --      1.3367                 1.5662                 1.9526
 Frc consts  --      1.6159                 1.9059                 2.4291
 IR Inten    --      2.9555                20.9175                32.3880

                     58                     59                     60
                      A                      A                      A
 Frequencies --   1465.4033              1511.4079              1512.6744
 Red. masses --      1.2887                 1.0438                 1.0504
 Frc consts  --      1.6305                 1.4049                 1.4161
 IR Inten    --      5.8204                 5.3894                 0.0038

                     61                     62                     63
                      A                      A                      A
 Frequencies --   1513.2757              1516.3353              1528.3027
 Red. masses --      1.0444                 1.0455                 1.1059
 Frc consts  --      1.4092                 1.4164                 1.5218
 IR Inten    --      7.2389                 0.0416                11.8882

                     64                     65                     66
                      A                      A                      A
 Frequencies --   1535.0949              1538.8494              1545.9715
 Red. masses --      1.0742                 1.0513                 1.0850
 Frc consts  --      1.4915                 1.4668                 1.5279
 IR Inten    --      0.8074                 4.1568                18.2593

                     67                     68                     69
                      A                      A                      A
 Frequencies --   1567.4665              1622.2782              1674.4606
 Red. masses --      2.7786                 6.6114                 3.0650
 Frc consts  --      4.0223                10.2517                 5.0633
 IR Inten    --    132.5664                 5.6770                 5.2244

                     70                     71                     72
                      A                      A                      A
 Frequencies --   1699.3021              2259.4713              3020.9868
 Red. masses --      1.3890                13.9734                 1.0465
 Frc consts  --      2.3631                42.0307                 5.6270
 IR Inten    --    102.4788               880.4537                43.0172

                     73                     74                     75
                      A                      A                      A
 Frequencies --   3047.5329              3049.2472              3058.4107
 Red. masses --      1.0355                 1.0384                 1.0413
 Frc consts  --      5.6665                 5.6884                 5.7390
 IR Inten    --     27.2039                14.1302                49.1883

                     76                     77                     78
                      A                      A                      A
 Frequencies --   3075.0128              3113.3310              3115.8182
 Red. masses --      1.0926                 1.1018                 1.1002
 Frc consts  --      6.0868                 6.2923                 6.2929
 IR Inten    --     20.9735                11.6825                32.4346

                     79                     80                     81
                      A                      A                      A
 Frequencies --   3126.8684              3127.6458              3130.1433
 Red. masses --      1.1021                 1.0943                 1.1012
 Frc consts  --      6.3487                 6.3068                 6.3572
 IR Inten    --     11.0720                66.1810                41.2118

                     82                     83                     84
                      A                      A                      A
 Frequencies --   3132.7771              3157.2891              3183.3481
 Red. masses --      1.0985                 1.1030                 1.0893
 Frc consts  --      6.3522                 6.4782                 6.5037
 IR Inten    --     11.8779                22.6150                12.1065

                     85                     86                     87
                      A                      A                      A
 Frequencies --   3189.4548              3545.8865              3643.4403
 Red. masses --      1.0881                 1.0479                 1.0976
 Frc consts  --      6.5217                 7.7629                 8.5846
 IR Inten    --     19.1827                 9.5695                 7.4857

 - Thermochemistry -
 -------------------
 Temperature   298.150 Kelvin.  Pressure   1.00000 Atm.
 Atom     1 has atomic number  6 and mass  12.00000

 Molecular mass:   204.13750 amu.
 Principal axes and moments of inertia in atomic units:
                           1         2         3
     Eigenvalues --  2783.671303241.390315611.65152
           X            0.99072  -0.13592   0.00206
           Y            0.13591   0.99072   0.00237
           Z           -0.00236  -0.00206   1.00000
 This molecule is an asymmetric top.
 Rotational symmetry number  1.
 Warning -- assumption of classical behavior for rotation
           may cause significant error
 Rotational temperatures (Kelvin)      0.03111     0.02672     0.01543
 Rotational constants (GHZ):           0.64833     0.55678     0.32161
 Zero-point vibrational energy     687998.2 (Joules/Mol)
                                  164.43550 (Kcal/Mol)
 Warning -- explicit consideration of  25 degrees of freedom as
           vibrations may cause significant error
 Vibrational temperatures:     37.15    78.46   110.59   173.53   212.88
          (Kelvin)            262.93   284.16   299.56   335.08   374.44
                              385.14   419.12   455.53   482.34   484.43
                              500.31   527.42   561.98   606.51   609.12
                              645.33   720.31   760.27   763.66   835.68
                              899.69   932.67   964.77  1004.45  1056.05
                             1100.71  1183.73  1247.66  1264.82  1270.89
                             1350.88  1370.37  1408.41  1491.93  1507.81
                             1533.03  1533.68  1544.30  1619.63  1708.99
                             1760.29  1783.62  1796.35  1846.25  1889.35
                             1928.92  1961.23  2004.13  2055.15  2060.94
                             2067.75  2090.67  2108.39  2174.58  2176.40
                             2177.27  2181.67  2198.89  2208.66  2214.06
                             2224.31  2255.23  2334.10  2409.18  2444.92
                             3250.88  4346.53  4384.72  4387.19  4400.37
                             4424.26  4479.39  4482.97  4498.87  4499.98
                             4503.58  4507.37  4542.63  4580.13  4588.91
                             5101.74  5242.10

 Zero-point correction=                           0.262045 (Hartree/Particle)
 Thermal correction to Energy=                    0.277557
 Thermal correction to Enthalpy=                  0.278501
 Thermal correction to Gibbs Free Energy=         0.219810
 Sum of electronic and zero-point Energies=           -647.554784
 Sum of electronic and thermal Energies=              -647.539272
 Sum of electronic and thermal Enthalpies=            -647.538328
 Sum of electronic and thermal Free Energies=         -647.597019

                     E (Thermal)             CV                S
                      KCal/Mol        Cal/Mol-Kelvin    Cal/Mol-Kelvin
 Total                  174.170             59.635            123.526
 Electronic               0.000              0.000              0.000
 Translational            0.889              2.981             41.845
 Rotational               0.889              2.981             32.293
 Vibrational            172.392             53.673             49.388
 Vibration     1          0.593              1.985              6.127
 Vibration     2          0.596              1.976              4.646
 Vibration     3          0.599              1.965              3.969
 Vibration     4          0.609              1.932              3.091
 Vibration     5          0.617              1.905              2.698
 Vibration     6          0.630              1.863              2.300
 Vibration     7          0.637              1.843              2.156
 Vibration     8          0.642              1.828              2.059
 Vibration     9          0.654              1.791              1.857
 Vibration    10          0.668              1.745              1.660
 Vibration    11          0.673              1.732              1.611
 Vibration    12          0.687              1.690              1.466
 Vibration    13          0.703              1.642              1.328
 Vibration    14          0.716              1.605              1.235
 Vibration    15          0.717              1.602              1.228
 Vibration    16          0.725              1.580              1.176
 Vibration    17          0.739              1.541              1.094
 Vibration    18          0.758              1.490              0.998
 Vibration    19          0.784              1.423              0.887
 Vibration    20          0.786              1.419              0.881
 Vibration    21          0.808              1.364              0.800
 Vibration    22          0.856              1.249              0.657
 Vibration    23          0.883              1.187              0.591
 Vibration    24          0.886              1.182              0.585
 Vibration    25          0.938              1.073              0.484

 Optimization completed.
    -- Stationary point found.
 Normal termination of Gaussian 16 at Thu Dec 10 16:54:11 2020.

 ----------------------------------------------------------------------
 # B3LYP/6-311++G(d,p) empiricaldispersion=gd3bj scf=xqc pop=npa geom=c
 heck
 ----------------------------------------------------------------------

 ---------------------------------------
 CID_151146625_JID_5593_Energie_neutraal
 ---------------------------------------
 Structure from the checkpoint file:  "JID_5593.chk"
 Charge =  0 Multiplicity = 1

 SCF Done:  E(RB3LYP) =  -647.994538063     A.U. after   16 cycles
 Normal termination of Gaussian 16 at Thu Dec 10 16:59:20 2020.

 ----------------------------------------------------------------------
 # B3LYP/6-311++G(d,p) empiricaldispersion=gd3bj scf=xqc pop=npa geom=c
 heck
 ----------------------------------------------------------------------

 -------------------------------------
 CID_151146625_JID_5593_Energie_kation
 -------------------------------------
 Structure from the checkpoint file:  "JID_5593.chk"
 Charge =  1 Multiplicity = 2

 SCF Done:  E(UB3LYP) =  -647.729097282     A.U. after   24 cycles
 Normal termination of Gaussian 16 at Thu Dec 10 17:10:20 2020.
 Gaussian 16:  ES64L-G16RevA.03 25-Dec-2016

 ----------------------------------------------------------------------
 # B3LYP/6-311++G(d,p) empiricaldispersion=gd3bj scf=xqc pop=npa geom=c
 heck
 ----------------------------------------------------------------------

 ------------------------------------
 CID_151146625_JID_5593_Energie_anion
 ------------------------------------
 Structure from the checkpoint file:  "JID_5593.chk"
 Charge = -1 Multiplicity = 2

                         Standard orientation:
 ---------------------------------------------------------------------
 Center     Atomic      Atomic             Coordinates (Angstroms)
 Number     Number       Type             X           Y           Z
 ---------------------------------------------------------------------
      1          6           0       -3.759489    0.337363    0.025249
      2          6           0       -2.282375    0.047041    0.004437
      3          6           0       -1.341888    1.065905    0.000529
      4          6           0        0.041742    0.826137   -0.000839
      5          6           0        0.534493   -0.493714    0.001649
      6          6           0       -0.432661   -1.510013   -0.003268
      7          6           0       -1.809604   -1.281263   -0.001263
      8          7           0       -2.712167   -2.350691    0.062120
      9          6           0        2.012442   -0.948208    0.002770
     10          6           0        2.261611   -1.813465    1.260590
     11          6           0        2.269197   -1.797001   -1.264657
     12          6           0        3.065724    0.175045    0.013760
     13          7           0        0.951321    1.924211   -0.004518
     14          7           0        0.503183    3.070317   -0.007796
     15          7           0        0.221951    4.180062   -0.011581
     16          1           0       -4.262533   -0.026616   -0.882933
     17          1           0       -4.247673   -0.149154    0.879341
     18          1           0       -3.949808    1.412045    0.091864
     19          1           0       -1.695633    2.093676    0.002331
     20          1           0       -0.099415   -2.543506   -0.004563
     21          1           0       -2.318289   -3.240532   -0.218951
     22          1           0       -3.598029   -2.186653   -0.400282
     23          1           0        1.612355   -2.693156    1.297267
     24          1           0        3.300542   -2.163250    1.274392
     25          1           0        2.086216   -1.229596    2.170655
     26          1           0        2.098198   -1.201854   -2.168356
     27          1           0        3.308393   -2.146008   -1.277687
     28          1           0        1.620911   -2.676922   -1.314784
     29          1           0        2.996008    0.816780   -0.867005
     30          1           0        2.984223    0.809536    0.898853
     31          1           0        4.059371   -0.289043    0.018543
 ---------------------------------------------------------------------

 SCF Done:  E(UB3LYP) =  -647.986394524     A.U. after   33 cycles
 SCF Done:  E(UB3LYP) =  -647.986394524     a.u. after    1 cycles

 The electronic state is 2-A.
 Alpha  occ. eigenvalues --  -14.36399 -14.26732 -14.25572 -14.20933 -10.11294
 Alpha  occ. eigenvalues --  -10.10558 -10.09580 -10.08248 -10.07834 -10.07344
 Alpha  occ. eigenvalues --  -10.07166 -10.06256 -10.06251 -10.06049 -10.05514
 Alpha  occ. eigenvalues --   -1.03158  -0.87890  -0.81580  -0.75290  -0.71784
 Alpha  occ. eigenvalues --   -0.66913  -0.64233  -0.59278  -0.59004  -0.58540
 Alpha  occ. eigenvalues --   -0.53903  -0.51078  -0.46656  -0.43977  -0.42274
 Alpha  occ. eigenvalues --   -0.40401  -0.39712  -0.38723  -0.35552  -0.35240
 Alpha  occ. eigenvalues --   -0.34857  -0.34167  -0.32853  -0.32732  -0.31898
 Alpha  occ. eigenvalues --   -0.30528  -0.30102  -0.28745  -0.28070  -0.27109
 Alpha  occ. eigenvalues --   -0.26601  -0.26338  -0.23966  -0.23713  -0.23111
 Alpha  occ. eigenvalues --   -0.22619  -0.19212  -0.16633  -0.14248  -0.09133
 Alpha  occ. eigenvalues --    0.04245
 Alpha virt. eigenvalues --    0.05697   0.06700   0.07574   0.07886   0.08809
 Alpha virt. eigenvalues --    0.09036   0.09198   0.09292   0.10377   0.10946
 Alpha virt. eigenvalues --    0.11382   0.11582   0.12194   0.12666   0.12947

  Beta  occ. eigenvalues --  -14.36202 -14.26524 -14.25595 -14.20867 -10.11252
  Beta  occ. eigenvalues --  -10.10553 -10.09578 -10.08252 -10.07831 -10.07316
  Beta  occ. eigenvalues --  -10.07160 -10.06243 -10.06230 -10.06029 -10.05497
  Beta  occ. eigenvalues --   -1.02812  -0.87738  -0.81508  -0.75242  -0.71760
  Beta  occ. eigenvalues --   -0.66869  -0.64137  -0.59231  -0.58973  -0.58505
  Beta  occ. eigenvalues --   -0.53791  -0.51021  -0.46581  -0.43859  -0.42085
  Beta  occ. eigenvalues --   -0.40225  -0.39588  -0.38179  -0.35508  -0.35204
  Beta  occ. eigenvalues --   -0.34398  -0.34138  -0.32820  -0.32688  -0.31781
  Beta  occ. eigenvalues --   -0.30489  -0.30081  -0.28669  -0.28042  -0.27079
  Beta  occ. eigenvalues --   -0.26574  -0.26298  -0.23937  -0.23684  -0.23017
  Beta  occ. eigenvalues --   -0.22567  -0.18866  -0.16574  -0.14225  -0.09060
  Beta virt. eigenvalues --    0.06595   0.07034   0.07915   0.07949   0.08470
  Beta virt. eigenvalues --    0.08836   0.09170   0.09450   0.09643   0.10711
  Beta virt. eigenvalues --    0.11152   0.11542   0.11749   0.12380   0.12831

 Mulliken charges and spin densities:
               1          2
     1  C    1.860807  -2.222788
     2  C    1.940061   0.137106
     3  C   -0.632306  -0.370477
     4  C   -1.201081  -0.235534
     5  C    1.806748  -0.126616
     6  C   -1.656516   0.601305
     7  C   -1.320827  -0.063539
     8  N   -0.180959  -0.085587
     9  C   -0.821590   1.282100
    10  C   -0.047495  -0.555642
    11  C    0.221680  -0.823940
    12  C   -0.209715  -0.272998
    13  N   -0.660909   0.415536
    14  N    1.064665  -0.133868
    15  N   -0.226734  -0.081758
    16  H   -0.299307   0.464979
    17  H   -0.060230   0.228818
    18  H    0.111106   0.033366
    19  H    0.094866   0.041319
    20  H    0.284611  -0.136942
    21  H   -0.576928   0.826734
    22  H   -0.209075   0.471973
    23  H   -0.203344   0.344656
    24  H   -0.028704   0.173418
    25  H    0.121291   0.025003
    26  H    0.090888   0.057824
    27  H   -0.052497   0.195822
    28  H   -0.363346   0.511236
    29  H    0.071288   0.093461
    30  H    0.058583   0.106295
    31  H    0.024970   0.098743
 Sum of Mulliken charges =  -1.00000   1.00000

 Dipole moment (field-independent basis, Debye):
    X=              3.7128    Y=              4.4103    Z=              1.4985  Tot=              5.9566
 Quadrupole moment (field-independent basis, Debye-Ang):
   XX=           -149.9295   YY=           -161.3285   ZZ=           -115.1696
   XY=            -15.1424   XZ=             -3.9306   YZ=             -4.1444

 Summary of Natural Population Analysis:

                                       Natural Population
                Natural  -----------------------------------------------
    Atom  No    Charge         Core      Valence    Rydberg      Total
 -----------------------------------------------------------------------
      C    1   -0.29598      0.99964     2.29030    0.00604     3.29598
      C    2   -0.03103      0.99948     2.02152    0.01003     3.03103
      C    3   -0.10844      0.99949     2.10209    0.00686     3.10844
      C    4    0.05313      0.99937     1.93650    0.01100     2.94687
      C    5   -0.00994      0.99945     1.99809    0.01240     3.00994
      C    6   -0.11231      0.99948     2.10360    0.00923     3.11231
      C    7    0.08432      0.99944     1.90409    0.01216     2.91568
      N    8   -0.39692      0.99972     2.88637    0.01083     3.89692
      C    9   -0.04975      0.99957     2.03891    0.01127     3.04975
      C   10   -0.27882      0.99963     2.27357    0.00562     3.27882
      C   11   -0.28016      0.99963     2.27338    0.00715     3.28016
      C   12   -0.28259      0.99963     2.27665    0.00630     3.28259
      N   13   -0.17608      0.99964     2.66306    0.01338     3.67608
      N   14    0.13500      0.99970     2.34991    0.01539     3.36500
      N   15   -0.03981      0.99982     2.52613    0.01386     3.53981
      H   16    0.10387      0.00000     0.39469    0.00144     0.39613
      H   17    0.10579      0.00000     0.39309    0.00112     0.39421
      H   18    0.10135      0.00000     0.39791    0.00074     0.39865
      H   19    0.09912      0.00000     0.39931    0.00157     0.40088
      H   20    0.10005      0.00000     0.39786    0.00210     0.39995
      H   21    0.18967      0.00000     0.30326    0.00707     0.31033
      H   22    0.18912      0.00000     0.30536    0.00552     0.31088
      H   23    0.10133      0.00000     0.39769    0.00098     0.39867
      H   24    0.09596      0.00000     0.40316    0.00088     0.40404
      H   25    0.10021      0.00000     0.39896    0.00082     0.39979
      H   26    0.10079      0.00000     0.39840    0.00081     0.39921
      H   27    0.09579      0.00000     0.40336    0.00086     0.40421
      H   28    0.10239      0.00000     0.39651    0.00110     0.39761
      H   29    0.10559      0.00000     0.39344    0.00096     0.39441
      H   30    0.10513      0.00000     0.39391    0.00096     0.39487
      H   31    0.09323      0.00000     0.40589    0.00088     0.40677
 =======================================================================
   * Total *    0.00000     14.99369    39.82698    0.17934    55.00000

 Normal termination of Gaussian 16 at Thu Dec 10 17:26:35 2020.
