 Gaussian 16, Revision A.03,

 -----------------------------------------------------------
 # opt freq B3LYP/6-31G(d) empiricaldispersion=gd3bj scf=xqc
 -----------------------------------------------------------

 -------------------------------
 CID_63776457_JID_10691_neutraal
 -------------------------------
 Symbolic Z-matrix:
 Charge =  0 Multiplicity = 1

 SCF Done:  E(RB3LYP) =  -920.069396291     A.U. after   15 cycles
 SCF Done:  E(RB3LYP) =  -920.069625471     A.U. after   13 cycles
 SCF Done:  E(RB3LYP) =  -920.078677830     A.U. after   13 cycles
 SCF Done:  E(RB3LYP) =  -920.078305993     A.U. after   12 cycles
 SCF Done:  E(RB3LYP) =  -920.078794056     A.U. after   13 cycles
 SCF Done:  E(RB3LYP) =  -920.079666517     A.U. after   12 cycles
 SCF Done:  E(RB3LYP) =  -920.080500134     A.U. after   12 cycles
 SCF Done:  E(RB3LYP) =  -920.080823595     A.U. after   12 cycles
 SCF Done:  E(RB3LYP) =  -920.081028485     A.U. after   11 cycles
 SCF Done:  E(RB3LYP) =  -920.081142877     A.U. after   11 cycles
 SCF Done:  E(RB3LYP) =  -920.081204328     A.U. after    9 cycles
 SCF Done:  E(RB3LYP) =  -920.081205424     A.U. after    9 cycles
 SCF Done:  E(RB3LYP) =  -920.081205945     A.U. after    9 cycles
 SCF Done:  E(RB3LYP) =  -920.081206105     A.U. after    8 cycles
 SCF Done:  E(RB3LYP) =  -920.081206134     A.U. after    6 cycles
 Optimization completed.
    -- Stationary point found.
 Normal termination of Gaussian 16 at Mon Dec 14 18:00:48 2020.

 --------------------------------------------------------------------
 #N Geom=AllCheck Guess=TCheck SCRF=Check GenChk RB3LYP/6-31G(d) Freq
 --------------------------------------------------------------------

 Structure from the checkpoint file:  "JID_10691.chk"
 -------------------------------
 CID_63776457_JID_10691_neutraal
 -------------------------------
 Charge =  0 Multiplicity = 1

 SCF Done:  E(RB3LYP) =  -920.081206134     A.U. after    1 cycles

  Exact polarizability: 191.447  10.675 192.138 -25.034   3.227 143.813
 Approx polarizability: 270.030  19.240 312.524 -43.079   0.048 218.837

                      1                      2                      3
                      A                      A                      A
 Frequencies --     18.5867                31.2981                46.1286
 Red. masses --      4.4839                 5.4021                 4.7904
 Frc consts  --      0.0009                 0.0031                 0.0060
 IR Inten    --      0.6527                 0.2592                 0.3153

                      4                      5                      6
                      A                      A                      A
 Frequencies --     68.0685               101.3023               108.6461
 Red. masses --      4.0641                 3.2228                 2.7803
 Frc consts  --      0.0111                 0.0195                 0.0193
 IR Inten    --      0.6530                 3.1647                 0.3064

                      7                      8                      9
                      A                      A                      A
 Frequencies --    125.0388               138.3019               143.8895
 Red. masses --      2.9547                 4.0646                 5.4341
 Frc consts  --      0.0272                 0.0458                 0.0663
 IR Inten    --      6.1051                 3.6534                 0.3990

                     10                     11                     12
                      A                      A                      A
 Frequencies --    168.5473               190.4428               217.2045
 Red. masses --      3.3723                 2.1455                 2.3050
 Frc consts  --      0.0564                 0.0458                 0.0641
 IR Inten    --      1.8256                 2.7354                 2.9270

                     13                     14                     15
                      A                      A                      A
 Frequencies --    224.4389               240.5978               294.3294
 Red. masses --      2.0669                 4.6746                 2.1521
 Frc consts  --      0.0613                 0.1594                 0.1098
 IR Inten    --      0.0500                 3.7074                 0.4813

                     16                     17                     18
                      A                      A                      A
 Frequencies --    296.6222               318.7278               332.8054
 Red. masses --      2.7393                 2.1969                 1.5356
 Frc consts  --      0.1420                 0.1315                 0.1002
 IR Inten    --      0.8671                 1.5419                 1.2807

                     19                     20                     21
                      A                      A                      A
 Frequencies --    336.6866               367.1862               382.6178
 Red. masses --      2.4028                 2.4700                 2.8519
 Frc consts  --      0.1605                 0.1962                 0.2460
 IR Inten    --      0.7783                 6.6269                 4.0300

                     22                     23                     24
                      A                      A                      A
 Frequencies --    420.6117               433.0585               468.8115
 Red. masses --      3.5381                 4.4223                 3.7995
 Frc consts  --      0.3688                 0.4886                 0.4920
 IR Inten    --      0.3685                 4.3040                 2.2121

                     25                     26                     27
                      A                      A                      A
 Frequencies --    493.5284               498.2860               525.2443
 Red. masses --      3.5272                 2.8275                 3.9025
 Frc consts  --      0.5062                 0.4136                 0.6343
 IR Inten    --      0.3818                16.2137                 6.1896

                     28                     29                     30
                      A                      A                      A
 Frequencies --    537.1565               554.9517               578.5079
 Red. masses --      4.6595                 4.1599                 4.0539
 Frc consts  --      0.7921                 0.7548                 0.7994
 IR Inten    --      3.3307                 7.3013                 5.8470

                     31                     32                     33
                      A                      A                      A
 Frequencies --    617.8627               626.8194               680.5407
 Red. masses --      2.8646                 2.2988                 1.8625
 Frc consts  --      0.6443                 0.5322                 0.5082
 IR Inten    --     32.0446                 6.7965                80.2468

                     34                     35                     36
                      A                      A                      A
 Frequencies --    712.4973               713.9803               734.1872
 Red. masses --      3.1928                 3.6354                 3.5818
 Frc consts  --      0.9550                 1.0919                 1.1375
 IR Inten    --     40.2417                11.4791                 4.2523

                     37                     38                     39
                      A                      A                      A
 Frequencies --    745.0843               771.1682               802.6466
 Red. masses --      1.2803                 3.0264                 1.3265
 Frc consts  --      0.4188                 1.0604                 0.5035
 IR Inten    --     56.1689                 8.5612                 9.2641

                     40                     41                     42
                      A                      A                      A
 Frequencies --    826.9555               833.4714               839.4290
 Red. masses --      2.3614                 1.5748                 2.6350
 Frc consts  --      0.9515                 0.6445                 1.0940
 IR Inten    --      8.2345                 0.6524                 9.3963

                     43                     44                     45
                      A                      A                      A
 Frequencies --    886.7367               897.0787               905.6562
 Red. masses --      1.3603                 2.8197                 2.5685
 Frc consts  --      0.6302                 1.3369                 1.2412
 IR Inten    --      4.2946                 8.4085                17.1731

                     46                     47                     48
                      A                      A                      A
 Frequencies --    938.1643               941.8664               969.3635
 Red. masses --      1.8536                 1.5016                 2.5154
 Frc consts  --      0.9612                 0.7848                 1.3926
 IR Inten    --      7.1637                 4.0911                 4.8872

                     49                     50                     51
                      A                      A                      A
 Frequencies --    986.0271              1053.6621              1054.7564
 Red. masses --      1.9519                 2.8128                 2.4861
 Frc consts  --      1.1181                 1.8399                 1.6295
 IR Inten    --      7.2708                 7.6058                11.5726

                     52                     53                     54
                      A                      A                      A
 Frequencies --   1067.5302              1098.0506              1117.5874
 Red. masses --      2.8113                 2.1260                 2.0874
 Frc consts  --      1.8877                 1.5103                 1.5361
 IR Inten    --     35.6035                14.2967                 4.8865

                     55                     56                     57
                      A                      A                      A
 Frequencies --   1121.7499              1124.6732              1143.7956
 Red. masses --      1.9641                 2.1558                 2.3790
 Frc consts  --      1.4561                 1.6066                 1.8337
 IR Inten    --     10.3273                18.3295                45.5969

                     58                     59                     60
                      A                      A                      A
 Frequencies --   1156.4748              1170.4412              1180.7329
 Red. masses --      1.3472                 2.2724                 2.1636
 Frc consts  --      1.0616                 1.8342                 1.7772
 IR Inten    --     16.1471                23.3846                26.2676

                     61                     62                     63
                      A                      A                      A
 Frequencies --   1194.7436              1201.7595              1205.6048
 Red. masses --      2.1658                 1.1185                 1.7149
 Frc consts  --      1.8214                 0.9517                 1.4686
 IR Inten    --    194.4675                 2.3783                 9.1300

                     64                     65                     66
                      A                      A                      A
 Frequencies --   1213.8467              1252.3337              1277.0461
 Red. masses --      2.4789                 1.3523                 1.9483
 Frc consts  --      2.1520                 1.2495                 1.8721
 IR Inten    --     69.8008                69.3586                28.5047

                     67                     68                     69
                      A                      A                      A
 Frequencies --   1283.1400              1300.2700              1310.3214
 Red. masses --      1.8646                 1.2176                 1.7152
 Frc consts  --      1.8088                 1.2129                 1.7351
 IR Inten    --    147.5220                 8.2604                18.5002

                     70                     71                     72
                      A                      A                      A
 Frequencies --   1331.5731              1348.7377              1353.5227
 Red. masses --      1.7634                 1.1169                 1.3739
 Frc consts  --      1.8421                 1.1970                 1.4830
 IR Inten    --     24.7089                 8.1561                 7.5955

                     73                     74                     75
                      A                      A                      A
 Frequencies --   1360.0298              1372.0673              1385.6198
 Red. masses --      1.8443                 2.2879                 1.4237
 Frc consts  --      2.0099                 2.5377                 1.6105
 IR Inten    --     69.6632                13.9778                 9.5785

                     76                     77                     78
                      A                      A                      A
 Frequencies --   1396.4514              1413.5431              1417.1124
 Red. masses --      2.8818                 1.7137                 1.3810
 Frc consts  --      3.3111                 2.0175                 1.6340
 IR Inten    --     81.7991                21.7887                 6.7337

                     79                     80                     81
                      A                      A                      A
 Frequencies --   1424.9566              1432.6485              1440.9518
 Red. masses --      1.3297                 1.5352                 1.4849
 Frc consts  --      1.5908                 1.8565                 1.8166
 IR Inten    --     16.1087                11.1208                 6.9364

                     82                     83                     84
                      A                      A                      A
 Frequencies --   1443.3178              1448.3788              1489.8867
 Red. masses --      1.2925                 1.4505                 1.3482
 Frc consts  --      1.5864                 1.7928                 1.7633
 IR Inten    --     18.3631                17.6253                 8.5846

                     85                     86                     87
                      A                      A                      A
 Frequencies --   1505.6868              1508.3085              1511.1487
 Red. masses --      1.3518                 1.2889                 1.0528
 Frc consts  --      1.8057                 1.7276                 1.4165
 IR Inten    --      7.7747                 5.4188                 4.7516

                     88                     89                     90
                      A                      A                      A
 Frequencies --   1515.4210              1522.2548              1529.1801
 Red. masses --      1.0968                 1.0873                 1.1607
 Frc consts  --      1.4841                 1.4844                 1.5991
 IR Inten    --      3.0063                 3.7529                20.1470

                     91                     92                     93
                      A                      A                      A
 Frequencies --   1535.8717              1542.6948              1552.8322
 Red. masses --      1.0525                 1.2000                 1.1373
 Frc consts  --      1.4627                 1.6826                 1.6158
 IR Inten    --      5.5379                43.0443                24.2557

                     94                     95                     96
                      A                      A                      A
 Frequencies --   1553.4323              1569.9063              1637.0124
 Red. masses --      1.0855                 2.2322                 5.8353
 Frc consts  --      1.5434                 3.2415                 9.2133
 IR Inten    --      8.4224               142.1409                 1.8385

                     97                     98                     99
                      A                      A                      A
 Frequencies --   1657.6049              1819.1129              2958.4264
 Red. masses --      5.2273                 9.7033                 1.0761
 Frc consts  --      8.4623                18.9187                 5.5491
 IR Inten    --     49.2328               224.1371                77.4809

                    100                    101                    102
                      A                      A                      A
 Frequencies --   2982.6919              2989.9334              3005.0787
 Red. masses --      1.0742                 1.0537                 1.0816
 Frc consts  --      5.6304                 5.5497                 5.7548
 IR Inten    --     73.0946                70.0948                19.3158

                    103                    104                    105
                      A                      A                      A
 Frequencies --   3019.6474              3065.2720              3065.8765
 Red. masses --      1.0640                 1.0723                 1.0913
 Frc consts  --      5.7163                 5.9361                 6.0437
 IR Inten    --     81.8555                41.3701                52.6349

                    106                    107                    108
                      A                      A                      A
 Frequencies --   3067.6200              3068.0169              3085.2126
 Red. masses --      1.0830                 1.0421                 1.0673
 Frc consts  --      6.0048                 5.7794                 5.9856
 IR Inten    --     50.8366                 6.4392                30.6822

                    109                    110                    111
                      A                      A                      A
 Frequencies --   3107.8105              3133.9490              3134.7541
 Red. masses --      1.0980                 1.0993                 1.0975
 Frc consts  --      6.2482                 6.3612                 6.3544
 IR Inten    --      8.0468                 9.7525                23.6432

                    112                    113                    114
                      A                      A                      A
 Frequencies --   3139.1145              3165.5906              3174.7390
 Red. masses --      1.0931                 1.1039                 1.0888
 Frc consts  --      6.3466                 6.5175                 6.4659
 IR Inten    --     26.1381                41.2570                 4.6264

                    115                    116                    117
                      A                      A                      A
 Frequencies --   3180.3215              3186.9048              3203.6589
 Red. masses --      1.0863                 1.0856                 1.0926
 Frc consts  --      6.4736                 6.4964                 6.6072
 IR Inten    --     16.8908                 3.2361                29.7076

                    118                    119                    120
                      A                      A                      A
 Frequencies --   3227.3292              3231.1170              3682.4867
 Red. masses --      1.0887                 1.0915                 1.0640
 Frc consts  --      6.6811                 6.7140                 8.5009
 IR Inten    --     38.8872                 4.6214                47.1440

 - Thermochemistry -
 -------------------
 Temperature   298.150 Kelvin.  Pressure   1.00000 Atm.
 Atom     1 has atomic number  6 and mass  12.00000

 Molecular mass:   278.16304 amu.
 Principal axes and moments of inertia in atomic units:
                           1         2         3
     Eigenvalues --  3461.363046479.899277532.83939
           X            0.99971  -0.01787  -0.01604
           Y            0.01808   0.99975   0.01309
           Z            0.01580  -0.01338   0.99979
 This molecule is an asymmetric top.
 Rotational symmetry number  1.
 Warning -- assumption of classical behavior for rotation
           may cause significant error
 Rotational temperatures (Kelvin)      0.02502     0.01337     0.01150
 Rotational constants (GHZ):           0.52140     0.27851     0.23958
 Zero-point vibrational energy     954108.6 (Joules/Mol)
                                  228.03742 (Kcal/Mol)
 Warning -- explicit consideration of  31 degrees of freedom as
           vibrations may cause significant error
 Vibrational temperatures:     26.74    45.03    66.37    97.94   145.75
          (Kelvin)            156.32   179.90   198.99   207.02   242.50
                              274.00   312.51   322.92   346.17   423.47
                              426.77   458.58   478.83   484.42   528.30
                              550.50   605.17   623.07   674.52   710.08
                              716.92   755.71   772.85   798.45   832.34
                              888.97   901.85   979.15  1025.12  1027.26
                             1056.33  1072.01  1109.54  1154.83  1189.80
                             1199.18  1207.75  1275.82  1290.70  1303.04
                             1349.81  1355.14  1394.70  1418.67  1515.98
                             1517.56  1535.94  1579.85  1607.96  1613.95
                             1618.15  1645.67  1663.91  1684.00  1698.81
                             1718.97  1729.06  1734.60  1746.45  1801.83
                             1837.38  1846.15  1870.80  1885.26  1915.84
                             1940.53  1947.42  1956.78  1974.10  1993.60
                             2009.18  2033.77  2038.91  2050.19  2061.26
                             2073.21  2076.61  2083.89  2143.61  2166.35
                             2170.12  2174.21  2180.35  2190.19  2200.15
                             2209.78  2219.59  2234.18  2235.04  2258.75
                             2355.30  2384.92  2617.30  4256.52  4291.43
                             4301.85  4323.64  4344.60  4410.24  4411.11
                             4413.62  4414.19  4438.93  4471.45  4509.05
                             4510.21  4516.49  4554.58  4567.74  4575.77
                             4585.25  4609.35  4643.41  4648.86  5298.28

 Zero-point correction=                           0.363401 (Hartree/Particle)
 Thermal correction to Energy=                    0.382650
 Thermal correction to Enthalpy=                  0.383594
 Thermal correction to Gibbs Free Energy=         0.315202
 Sum of electronic and zero-point Energies=           -919.717805
 Sum of electronic and thermal Energies=              -919.698556
 Sum of electronic and thermal Enthalpies=            -919.697612
 Sum of electronic and thermal Free Energies=         -919.766004

                     E (Thermal)             CV                S
                      KCal/Mol        Cal/Mol-Kelvin    Cal/Mol-Kelvin
 Total                  240.116             74.422            143.942
 Electronic               0.000              0.000              0.000
 Translational            0.889              2.981             42.767
 Rotational               0.889              2.981             33.490
 Vibrational            238.339             68.460             67.684
 Vibration     1          0.593              1.986              6.780
 Vibration     2          0.594              1.983              5.745
 Vibration     3          0.595              1.979              4.977
 Vibration     4          0.598              1.969              4.208
 Vibration     5          0.604              1.948              3.429
 Vibration     6          0.606              1.942              3.293
 Vibration     7          0.610              1.928              3.021
 Vibration     8          0.614              1.915              2.827
 Vibration     9          0.616              1.909              2.751
 Vibration    10          0.625              1.881              2.452
 Vibration    11          0.634              1.853              2.224
 Vibration    12          0.646              1.815              1.982
 Vibration    13          0.649              1.804              1.923
 Vibration    14          0.658              1.778              1.798
 Vibration    15          0.689              1.684              1.449
 Vibration    16          0.690              1.680              1.436
 Vibration    17          0.705              1.638              1.317
 Vibration    18          0.715              1.610              1.246
 Vibration    19          0.717              1.602              1.228
 Vibration    20          0.740              1.540              1.092
 Vibration    21          0.752              1.507              1.029
 Vibration    22          0.783              1.425              0.890
 Vibration    23          0.794              1.398              0.849
 Vibration    24          0.826              1.319              0.741
 Vibration    25          0.849              1.264              0.675
 Vibration    26          0.854              1.254              0.662
 Vibration    27          0.880              1.194              0.598
 Vibration    28          0.892              1.168              0.571
 Vibration    29          0.910              1.129              0.534
 Vibration    30          0.935              1.078              0.488
 Vibration    31          0.978              0.994              0.420

                           ! Non-Optimized Parameters !
 Normal termination of Gaussian 16 at Mon Dec 14 18:26:56 2020.

 ----------------------------------------------------------------------
 # B3LYP/6-311++G(d,p) empiricaldispersion=gd3bj scf=xqc pop=npa geom=c
 heck
 ----------------------------------------------------------------------

 ---------------------------------------
 CID_63776457_JID_10691_Energie_neutraal
 ---------------------------------------
 Structure from the checkpoint file:  "JID_10691.chk"
 Charge =  0 Multiplicity = 1

 SCF Done:  E(RB3LYP) =  -920.342601561     A.U. after   15 cycles
 Normal termination of Gaussian 16 at Mon Dec 14 18:37:03 2020.

 ----------------------------------------------------------------------
 # B3LYP/6-311++G(d,p) empiricaldispersion=gd3bj scf=xqc pop=npa geom=c
 heck
 ----------------------------------------------------------------------

 -------------------------------------
 CID_63776457_JID_10691_Energie_kation
 -------------------------------------
 Structure from the checkpoint file:  "JID_10691.chk"
 Charge =  1 Multiplicity = 2

 SCF Done:  E(UB3LYP) =  -920.104676050     A.U. after   22 cycles
 Normal termination of Gaussian 16 at Mon Dec 14 18:57:07 2020.
 Gaussian 16:  ES64L-G16RevA.03 25-Dec-2016

 ----------------------------------------------------------------------
 # B3LYP/6-311++G(d,p) empiricaldispersion=gd3bj scf=xqc pop=npa geom=c
 heck
 ----------------------------------------------------------------------

 ------------------------------------
 CID_63776457_JID_10691_Energie_anion
 ------------------------------------
 Structure from the checkpoint file:  "JID_10691.chk"
 Charge = -1 Multiplicity = 2

                         Standard orientation:
 ---------------------------------------------------------------------
 Center     Atomic      Atomic             Coordinates (Angstroms)
 Number     Number       Type             X           Y           Z
 ---------------------------------------------------------------------
      1          6           0        0.796139   -0.861455    2.052423
      2          6           0        1.425190   -1.909120    1.143846
      3          8           0        2.709647   -1.601087    0.578274
      4          6           0        2.905799   -0.504661   -0.287186
      5          6           0        2.274794   -0.555022   -1.696440
      6          6           0        0.780988   -0.870186   -1.865057
      7          7           0       -0.118320   -0.016828   -1.106230
      8          6           0       -0.196396    1.363109   -1.571960
      9          6           0       -0.716066    2.239030   -0.445312
     10          7           0       -2.002587    1.747683    0.011279
     11          6           0       -2.248507    0.375446    0.018864
     12          6           0       -3.392155   -0.148021    0.640051
     13          6           0       -3.699086   -1.508822    0.588299
     14          6           0       -2.862055   -2.375832   -0.098597
     15          6           0       -1.705107   -1.878426   -0.706183
     16          6           0       -1.347048   -0.528518   -0.627406
     17          6           0       -2.767596    2.618376    0.876138
     18          6           0        2.790085    0.872047    0.378895
     19          8           0        2.487479    1.905499   -0.183525
     20          8           0        3.220581    0.854946    1.657409
     21          1           0        1.456839   -0.602201    2.882783
     22          1           0       -0.138490   -1.273586    2.449377
     23          1           0        0.534093    0.044056    1.500264
     24          1           0        1.633185   -2.815439    1.721055
     25          1           0        0.711883   -2.182338    0.364382
     26          1           0        3.989746   -0.553963   -0.476201
     27          1           0        2.527201    0.393981   -2.179735
     28          1           0        2.807315   -1.334022   -2.254656
     29          1           0        0.548460   -0.834936   -2.944879
     30          1           0        0.630303   -1.902158   -1.560816
     31          1           0       -0.853743    1.449038   -2.453682
     32          1           0        0.801185    1.705788   -1.840272
     33          1           0        0.035142    2.268935    0.357499
     34          1           0       -0.845090    3.264453   -0.812893
     35          1           0       -4.060064    0.518151    1.172051
     36          1           0       -4.595251   -1.873615    1.081717
     37          1           0       -3.092873   -3.434096   -0.174388
     38          1           0       -1.077724   -2.574030   -1.249410
     39          1           0       -3.837053    2.573311    0.638177
     40          1           0       -2.646018    2.375922    1.944911
     41          1           0       -2.435191    3.647257    0.717835
     42          1           0        3.176978    1.780963    1.962015
 ---------------------------------------------------------------------

 SCF Done:  E(UB3LYP) =  -920.332010629     A.U. after   33 cycles
 SCF Done:  E(UB3LYP) =  -920.332010629     a.u. after    1 cycles

 The electronic state is 2-A.
 Alpha  occ. eigenvalues --  -19.06945 -19.03105 -19.01664 -14.23517 -14.23427
 Alpha  occ. eigenvalues --  -10.20428 -10.14369 -10.11949 -10.11879 -10.11690
 Alpha  occ. eigenvalues --  -10.11343 -10.10626 -10.10544 -10.10386 -10.08259
 Alpha  occ. eigenvalues --  -10.07527 -10.07276 -10.07165 -10.07130 -10.05790
 Alpha  occ. eigenvalues --   -1.01399  -0.93887  -0.92189  -0.87794  -0.83584
 Alpha  occ. eigenvalues --   -0.75111  -0.70471  -0.67381  -0.66470  -0.65123
 Alpha  occ. eigenvalues --   -0.64037  -0.61325  -0.57299  -0.55548  -0.54602
 Alpha  occ. eigenvalues --   -0.53050  -0.49870  -0.46782  -0.46182  -0.44622
 Alpha  occ. eigenvalues --   -0.42283  -0.41609  -0.40901  -0.40368  -0.39078
 Alpha  occ. eigenvalues --   -0.37472  -0.37094  -0.36074  -0.35260  -0.35056
 Alpha  occ. eigenvalues --   -0.34782  -0.33878  -0.33495  -0.32952  -0.32505
 Alpha  occ. eigenvalues --   -0.31573  -0.30408  -0.29920  -0.28681  -0.28270
 Alpha  occ. eigenvalues --   -0.28077  -0.27829  -0.27420  -0.27046  -0.25801
 Alpha  occ. eigenvalues --   -0.24940  -0.24228  -0.22798  -0.22019  -0.19910
 Alpha  occ. eigenvalues --   -0.19057  -0.18782  -0.16191  -0.12790  -0.08799
 Alpha  occ. eigenvalues --    0.04053
 Alpha virt. eigenvalues --    0.05696   0.06360   0.06924   0.07566   0.08195
 Alpha virt. eigenvalues --    0.08326   0.08647   0.08978   0.09219   0.09609
 Alpha virt. eigenvalues --    0.09811   0.10209   0.10784   0.10907   0.11347

  Beta  occ. eigenvalues --  -19.06903 -19.03097 -19.01618 -14.23517 -14.23426
  Beta  occ. eigenvalues --  -10.20356 -10.14356 -10.11944 -10.11871 -10.11683
  Beta  occ. eigenvalues --  -10.11336 -10.10612 -10.10511 -10.10376 -10.08237
  Beta  occ. eigenvalues --  -10.07522 -10.07264 -10.07162 -10.07128 -10.05777
  Beta  occ. eigenvalues --   -1.01295  -0.93868  -0.92101  -0.87783  -0.83574
  Beta  occ. eigenvalues --   -0.75096  -0.70424  -0.67358  -0.66446  -0.65106
  Beta  occ. eigenvalues --   -0.63998  -0.61251  -0.57254  -0.55519  -0.54538
  Beta  occ. eigenvalues --   -0.52993  -0.49827  -0.46734  -0.46138  -0.44602
  Beta  occ. eigenvalues --   -0.42231  -0.41551  -0.40860  -0.40318  -0.39017
  Beta  occ. eigenvalues --   -0.37438  -0.37070  -0.36039  -0.35227  -0.34939
  Beta  occ. eigenvalues --   -0.34761  -0.33849  -0.33465  -0.32903  -0.32464
  Beta  occ. eigenvalues --   -0.31531  -0.30366  -0.29882  -0.28649  -0.28239
  Beta  occ. eigenvalues --   -0.28046  -0.27801  -0.27400  -0.27014  -0.25781
  Beta  occ. eigenvalues --   -0.24896  -0.24208  -0.22639  -0.21992  -0.19875
  Beta  occ. eigenvalues --   -0.19021  -0.18749  -0.16150  -0.12768  -0.08777
  Beta virt. eigenvalues --    0.06035   0.06546   0.06867   0.07485   0.08031
  Beta virt. eigenvalues --    0.08389   0.08642   0.08845   0.09087   0.09648
  Beta virt. eigenvalues --    0.09817   0.10092   0.10544   0.10953   0.11182

 Mulliken charges and spin densities:
               1          2
     1  C   -0.623195   0.049299
     2  C   -0.218284  -0.021650
     3  O    0.004661  -0.050122
     4  C    0.077714   0.031643
     5  C    0.998848  -1.480696
     6  C   -0.610784   0.526168
     7  N    0.370914  -0.056179
     8  C    0.580878  -0.770847
     9  C   -0.653856   0.188866
    10  N    0.049213   0.074392
    11  C   -0.080817   0.130378
    12  C   -0.435250   0.154122
    13  C    0.090779  -0.528908
    14  C   -0.942170   0.328413
    15  C   -0.166159   0.025170
    16  C    0.542143  -0.285088
    17  C    0.750381  -1.053712
    18  C    0.351932  -0.758450
    19  O   -0.262104   0.045982
    20  O   -0.129229   0.043175
    21  H    0.165072   0.025531
    22  H   -0.007319   0.118829
    23  H    0.714454  -0.474750
    24  H    0.033451   0.156579
    25  H    0.287131  -0.183908
    26  H   -0.620077   0.869959
    27  H    0.009395   0.164860
    28  H   -0.229116   0.427307
    29  H   -0.008203   0.171646
    30  H   -0.003064   0.076747
    31  H    0.001570   0.148688
    32  H    0.148800   0.036557
    33  H   -0.075392   0.297946
    34  H   -0.224193   0.379776
    35  H    0.033016   0.104579
    36  H    0.040182   0.104516
    37  H    0.080414   0.059141
    38  H    0.018437   0.128218
    39  H   -0.166776   0.305841
    40  H   -0.171612   0.328839
    41  H   -0.425951   0.573833
    42  H   -0.295834   0.587310
 Sum of Mulliken charges =  -1.00000   1.00000

 Dipole moment (field-independent basis, Debye):
    X=             -3.4914    Y=             -3.8594    Z=             -1.1658  Tot=              5.3333
 Quadrupole moment (field-independent basis, Debye-Ang):
   XX=           -201.6033   YY=           -170.8177   ZZ=           -158.1216
   XY=              5.4624   XZ=              0.2371   YZ=             -5.4445

 Summary of Natural Population Analysis:

                                       Natural Population
                Natural  -----------------------------------------------
    Atom  No    Charge         Core      Valence    Rydberg      Total
 -----------------------------------------------------------------------
      C    1   -0.30423      0.99965     2.29953    0.00505     3.30423
      C    2   -0.00697      0.99955     1.99709    0.01033     3.00697
      O    3   -0.29903      0.99988     3.28935    0.00980     4.29903
      C    4    0.02320      0.99947     1.95916    0.01817     2.97680
      C    5   -0.20434      0.99960     2.19482    0.00992     3.20434
      C    6   -0.08107      0.99959     2.07046    0.01102     3.08107
      N    7   -0.26839      0.99965     2.75593    0.01282     3.76839
      C    8   -0.08758      0.99960     2.07805    0.00993     3.08758
      C    9   -0.07795      0.99960     2.06800    0.01035     3.07795
      N   10   -0.25065      0.99965     2.74039    0.01061     3.75065
      C   11    0.08570      0.99946     1.90349    0.01135     2.91430
      C   12   -0.13188      0.99954     2.12302    0.00931     3.13188
      C   13   -0.10950      0.99957     2.10027    0.00966     3.10950
      C   14   -0.12074      0.99957     2.11101    0.01016     3.12074
      C   15   -0.12794      0.99953     2.12055    0.00785     3.12794
      C   16    0.07994      0.99945     1.90960    0.01101     2.92006
      C   17   -0.17555      0.99964     2.16703    0.00888     3.17555
      C   18    0.40536      0.99969     1.56892    0.02602     2.59464
      O   19   -0.31420      0.99987     3.30758    0.00675     4.31420
      O   20   -0.33923      0.99987     3.33185    0.00751     4.33923
      H   21    0.10295      0.00000     0.39607    0.00098     0.39705
      H   22    0.10365      0.00000     0.39548    0.00087     0.39635
      H   23    0.10170      0.00000     0.39616    0.00214     0.39830
      H   24    0.08547      0.00000     0.41339    0.00114     0.41453
      H   25    0.08050      0.00000     0.41751    0.00198     0.41950
      H   26    0.11297      0.00000     0.38401    0.00302     0.38703
      H   27    0.10932      0.00000     0.38911    0.00156     0.39068
      H   28    0.10364      0.00000     0.39510    0.00126     0.39636
      H   29    0.08937      0.00000     0.40942    0.00121     0.41063
      H   30    0.09760      0.00000     0.40054    0.00185     0.40240
      H   31    0.08480      0.00000     0.41392    0.00128     0.41520
      H   32    0.11457      0.00000     0.38412    0.00131     0.38543
      H   33    0.09597      0.00000     0.40192    0.00211     0.40403
      H   34    0.09606      0.00000     0.40281    0.00113     0.40394
      H   35    0.10293      0.00000     0.39599    0.00108     0.39707
      H   36    0.09721      0.00000     0.40203    0.00075     0.40279
      H   37    0.09715      0.00000     0.40206    0.00079     0.40285
      H   38    0.10009      0.00000     0.39875    0.00116     0.39991
      H   39    0.09456      0.00000     0.40407    0.00137     0.40544
      H   40    0.09121      0.00000     0.40727    0.00152     0.40879
      H   41    0.10139      0.00000     0.39731    0.00130     0.39861
      H   42    0.24195      0.00000     0.25005    0.00800     0.25805
 =======================================================================
   * Total *    0.00000     19.99244    54.75322    0.25434    75.00000

 Normal termination of Gaussian 16 at Mon Dec 14 19:26:44 2020.
