 Gaussian 16, Revision A.03,

 -----------------------------------------------------------
 # opt freq B3LYP/6-31G(d) empiricaldispersion=gd3bj scf=xqc
 -----------------------------------------------------------

 -------------------------------
 CID_45358479_JID_10819_neutraal
 -------------------------------
 Symbolic Z-matrix:
 Charge =  0 Multiplicity = 1

 SCF Done:  E(RB3LYP) =  -1281.54563429     A.U. after   15 cycles
 SCF Done:  E(RB3LYP) =  -1281.55287421     A.U. after   13 cycles
 SCF Done:  E(RB3LYP) =  -1281.55405566     A.U. after   13 cycles
 SCF Done:  E(RB3LYP) =  -1281.55474801     A.U. after   12 cycles
 SCF Done:  E(RB3LYP) =  -1281.55515878     A.U. after   12 cycles
 SCF Done:  E(RB3LYP) =  -1281.55536495     A.U. after   12 cycles
 SCF Done:  E(RB3LYP) =  -1281.55543237     A.U. after   11 cycles
 SCF Done:  E(RB3LYP) =  -1281.55545586     A.U. after   10 cycles
 SCF Done:  E(RB3LYP) =  -1281.55548460     A.U. after   10 cycles
 SCF Done:  E(RB3LYP) =  -1281.55553197     A.U. after   11 cycles
 SCF Done:  E(RB3LYP) =  -1281.55585184     A.U. after   10 cycles
 SCF Done:  E(RB3LYP) =  -1281.55585084     A.U. after    9 cycles
 SCF Done:  E(RB3LYP) =  -1281.55585263     A.U. after    9 cycles
 SCF Done:  E(RB3LYP) =  -1281.55585276     A.U. after    8 cycles
 SCF Done:  E(RB3LYP) =  -1281.55585278     A.U. after    7 cycles
 Optimization completed.
    -- Stationary point found.
 Normal termination of Gaussian 16 at Sun Dec 13 17:08:37 2020.

 --------------------------------------------------------------------
 #N Geom=AllCheck Guess=TCheck SCRF=Check GenChk RB3LYP/6-31G(d) Freq
 --------------------------------------------------------------------

 Structure from the checkpoint file:  "JID_10819.chk"
 -------------------------------
 CID_45358479_JID_10819_neutraal
 -------------------------------
 Charge =  0 Multiplicity = 1

 SCF Done:  E(RB3LYP) =  -1281.55585278     A.U. after    1 cycles

  Exact polarizability: 195.806  18.428 178.307 -11.912  19.019 149.175
 Approx polarizability: 302.782  40.544 276.816 -14.886  56.726 263.066

                      1                      2                      3
                      A                      A                      A
 Frequencies --     26.8645                29.9208                39.1150
 Red. masses --      4.6430                 4.5048                 4.6882
 Frc consts  --      0.0020                 0.0024                 0.0042
 IR Inten    --      0.4875                 1.5110                 0.4461

                      4                      5                      6
                      A                      A                      A
 Frequencies --     61.0245                77.3883                92.1392
 Red. masses --      4.7030                 4.0995                 4.6496
 Frc consts  --      0.0103                 0.0145                 0.0233
 IR Inten    --      0.9851                 0.9692                 2.4156

                      7                      8                      9
                      A                      A                      A
 Frequencies --     98.7056               111.8647               160.3381
 Red. masses --      2.8865                 1.4850                 1.8781
 Frc consts  --      0.0166                 0.0109                 0.0284
 IR Inten    --      0.2615                 0.1694                 0.8946

                     10                     11                     12
                      A                      A                      A
 Frequencies --    171.8046               182.0046               202.1300
 Red. masses --      3.2340                 5.0461                 3.2031
 Frc consts  --      0.0562                 0.0985                 0.0771
 IR Inten    --      1.8766                 0.0731                 1.2864

                     13                     14                     15
                      A                      A                      A
 Frequencies --    215.2090               237.2523               250.5930
 Red. masses --      4.3442                 1.5180                 3.5998
 Frc consts  --      0.1185                 0.0503                 0.1332
 IR Inten    --      1.1617                 1.7153                 3.7166

                     16                     17                     18
                      A                      A                      A
 Frequencies --    287.3532               306.7760               313.1791
 Red. masses --      3.8675                 4.9563                 3.2594
 Frc consts  --      0.1882                 0.2748                 0.1884
 IR Inten    --      1.8154                 0.4326                 2.4578

                     19                     20                     21
                      A                      A                      A
 Frequencies --    332.8154               349.7670               365.2206
 Red. masses --      3.2696                 4.5812                 3.9593
 Frc consts  --      0.2134                 0.3302                 0.3112
 IR Inten    --      6.9238                 5.6222                 9.1259

                     22                     23                     24
                      A                      A                      A
 Frequencies --    402.5520               417.2267               427.6076
 Red. masses --      4.2574                 3.2281                 6.4114
 Frc consts  --      0.4065                 0.3311                 0.6907
 IR Inten    --     12.3077                 0.3431                 1.8732

                     25                     26                     27
                      A                      A                      A
 Frequencies --    460.5065               493.3636               522.1312
 Red. masses --      3.5042                 4.1499                10.2157
 Frc consts  --      0.4378                 0.5951                 1.6409
 IR Inten    --      1.2430                 2.5191                47.3968

                     28                     29                     30
                      A                      A                      A
 Frequencies --    546.5335               592.2351               629.9869
 Red. masses --      4.1919                 4.2391                 6.4127
 Frc consts  --      0.7377                 0.8760                 1.4995
 IR Inten    --     17.1888                51.2248                 0.1106

                     31                     32                     33
                      A                      A                      A
 Frequencies --    633.1415               664.1941               701.1893
 Red. masses --      4.7202                 3.0544                 2.6985
 Frc consts  --      1.1148                 0.7939                 0.7817
 IR Inten    --     11.0196                37.3164                18.3394

                     34                     35                     36
                      A                      A                      A
 Frequencies --    718.6926               760.1888               761.7121
 Red. masses --      3.0890                 3.0672                 4.7887
 Frc consts  --      0.9401                 1.0443                 1.6370
 IR Inten    --     48.0930                14.8694                17.2941

                     37                     38                     39
                      A                      A                      A
 Frequencies --    771.2072               796.0248               847.2367
 Red. masses --      1.9196                 1.8768                 1.8416
 Frc consts  --      0.6727                 0.7007                 0.7788
 IR Inten    --      5.5241                10.9881                 3.0610

                     40                     41                     42
                      A                      A                      A
 Frequencies --    861.7360               874.1401               889.5561
 Red. masses --      1.2489                 2.0858                 2.7487
 Frc consts  --      0.5464                 0.9390                 1.2815
 IR Inten    --      0.3268                 1.3128                 4.6566

                     43                     44                     45
                      A                      A                      A
 Frequencies --    934.1783               944.0618               960.4345
 Red. masses --      2.3365                 1.3965                 2.0218
 Frc consts  --      1.2013                 0.7333                 1.0988
 IR Inten    --      0.5161                 0.6535                 1.2969

                     46                     47                     48
                      A                      A                      A
 Frequencies --    981.3557              1007.3095              1013.6055
 Red. masses --      1.3523                 1.2767                 2.7674
 Frc consts  --      0.7673                 0.7632                 1.6752
 IR Inten    --      0.8421                 0.3923                 3.8805

                     49                     50                     51
                      A                      A                      A
 Frequencies --   1020.2173              1043.2066              1052.9183
 Red. masses --      6.3676                 2.1252                 2.9840
 Frc consts  --      3.9049                 1.3627                 1.9491
 IR Inten    --      5.4953                19.7113                 2.9030

                     52                     53                     54
                      A                      A                      A
 Frequencies --   1061.7466              1075.4897              1082.6732
 Red. masses --      2.5300                 1.9851                 2.8656
 Frc consts  --      1.6804                 1.3529                 1.9791
 IR Inten    --      6.2332                14.9841                51.2087

                     55                     56                     57
                      A                      A                      A
 Frequencies --   1090.5228              1112.6021              1125.3597
 Red. masses --      1.9349                 1.5691                 2.3854
 Frc consts  --      1.3557                 1.1444                 1.7799
 IR Inten    --     80.3640                 6.2541                16.5479

                     58                     59                     60
                      A                      A                      A
 Frequencies --   1129.3944              1141.4136              1180.4889
 Red. masses --      3.3759                 3.5393                 1.1702
 Frc consts  --      2.5370                 2.7168                 0.9608
 IR Inten    --    131.1045               113.3290                28.7808

                     61                     62                     63
                      A                      A                      A
 Frequencies --   1197.2533              1210.6312              1212.3601
 Red. masses --      1.1081                 1.5837                 1.2473
 Frc consts  --      0.9358                 1.3676                 1.0802
 IR Inten    --      0.0301                 6.3288                 5.3623

                     64                     65                     66
                      A                      A                      A
 Frequencies --   1214.4954              1240.5960              1265.5184
 Red. masses --      1.5897                 1.7689                 1.4233
 Frc consts  --      1.3815                 1.6040                 1.3431
 IR Inten    --     11.4259                91.4822                80.1014

                     67                     68                     69
                      A                      A                      A
 Frequencies --   1281.9136              1296.6591              1331.7442
 Red. masses --      1.7568                11.7313                 1.9875
 Frc consts  --      1.7009                11.6212                 2.0768
 IR Inten    --     59.2927                75.7082               112.1630

                     70                     71                     72
                      A                      A                      A
 Frequencies --   1342.3297              1346.0248              1350.0185
 Red. masses --      1.1274                 1.5510                 1.4562
 Frc consts  --      1.1969                 1.6557                 1.5637
 IR Inten    --     15.2844                 0.5155                 5.8648

                     73                     74                     75
                      A                      A                      A
 Frequencies --   1366.5703              1386.1958              1421.9640
 Red. masses --      4.0994                 2.3164                 1.4461
 Frc consts  --      4.5106                 2.6225                 1.7228
 IR Inten    --      0.8145                82.1828                34.0642

                     76                     77                     78
                      A                      A                      A
 Frequencies --   1440.0721              1443.7076              1494.0398
 Red. masses --      1.3104                 1.3357                 2.1763
 Frc consts  --      1.6011                 1.6402                 2.8621
 IR Inten    --     16.1370                 6.6324                17.3203

                     79                     80                     81
                      A                      A                      A
 Frequencies --   1509.0146              1513.5999              1515.2966
 Red. masses --      1.0716                 1.0784                 1.0595
 Frc consts  --      1.4377                 1.4557                 1.4333
 IR Inten    --      5.4564                 0.5081                15.0014

                     82                     83                     84
                      A                      A                      A
 Frequencies --   1516.7818              1518.9659              1528.2675
 Red. masses --      1.0599                 1.0768                 1.9585
 Frc consts  --      1.4367                 1.4638                 2.6951
 IR Inten    --     11.2725                 4.1567                 1.5652

                     85                     86                     87
                      A                      A                      A
 Frequencies --   1532.0754              1536.2748              1646.0959
 Red. masses --      1.1103                 1.0616                 5.6379
 Frc consts  --      1.5355                 1.4762                 9.0007
 IR Inten    --      9.1316                14.0225                 0.7583

                     88                     89                     90
                      A                      A                      A
 Frequencies --   1647.5037              1699.5580              1780.9227
 Red. masses --      5.4783                 7.2439                11.6149
 Frc consts  --      8.7609                12.3281                21.7048
 IR Inten    --      1.8098                19.7570               243.3615

                     91                     92                     93
                      A                      A                      A
 Frequencies --   3049.4730              3059.6338              3074.4436
 Red. masses --      1.0478                 1.0358                 1.0634
 Frc consts  --      5.7411                 5.7131                 5.9222
 IR Inten    --     15.6560                13.8916                13.4114

                     94                     95                     96
                      A                      A                      A
 Frequencies --   3078.5990              3090.7171              3097.8289
 Red. masses --      1.0730                 1.0820                 1.0593
 Frc consts  --      5.9920                 6.0898                 5.9894
 IR Inten    --     11.1280                12.4065                27.0493

                     97                     98                     99
                      A                      A                      A
 Frequencies --   3104.9069              3111.1128              3125.2583
 Red. masses --      1.0921                 1.0980                 1.1018
 Frc consts  --      6.2031                 6.2615                 6.3406
 IR Inten    --      5.6614                14.5233                33.0643

                    100                    101                    102
                      A                      A                      A
 Frequencies --   3139.5506              3141.4144              3160.1835
 Red. masses --      1.0995                 1.1027                 1.1088
 Frc consts  --      6.3852                 6.4115                 6.5241
 IR Inten    --      9.1733                13.5332                22.4829

                    103                    104                    105
                      A                      A                      A
 Frequencies --   3195.2608              3202.9745              3207.1440
 Red. masses --      1.0861                 1.0967                 1.0898
 Frc consts  --      6.5336                 6.6290                 6.6044
 IR Inten    --      0.7280                 3.7847                12.8273

                    106                    107                    108
                      A                      A                      A
 Frequencies --   3216.6094              3230.8827              3236.3361
 Red. masses --      1.0945                 1.0934                 1.0936
 Frc consts  --      6.6721                 6.7245                 6.7487
 IR Inten    --     13.9673                 3.4665                 2.4440

 - Thermochemistry -
 -------------------
 Temperature   298.150 Kelvin.  Pressure   1.00000 Atm.
 Atom     1 has atomic number  6 and mass  12.00000

 Molecular mass:   294.09258 amu.
 Principal axes and moments of inertia in atomic units:
                           1         2         3
     Eigenvalues --  3898.998126549.045857911.32617
           X            0.99947   0.01008  -0.03093
           Y           -0.00988   0.99993   0.00638
           Z            0.03099  -0.00607   0.99950
 This molecule is an asymmetric top.
 Rotational symmetry number  1.
 Warning -- assumption of classical behavior for rotation
           may cause significant error
 Rotational temperatures (Kelvin)      0.02221     0.01323     0.01095
 Rotational constants (GHZ):           0.46287     0.27557     0.22812
 Zero-point vibrational energy     813151.9 (Joules/Mol)
                                  194.34798 (Kcal/Mol)
 Warning -- explicit consideration of  29 degrees of freedom as
           vibrations may cause significant error
 Vibrational temperatures:     38.65    43.05    56.28    87.80   111.34
          (Kelvin)            132.57   142.02   160.95   230.69   247.19
                              261.86   290.82   309.64   341.35   360.55
                              413.44   441.38   450.59   478.85   503.24
                              525.47   579.18   600.30   615.23   662.57
                              709.84   751.23   786.34   852.09   906.41
                              910.95   955.63  1008.85  1034.04  1093.74
                             1095.93  1109.60  1145.30  1218.98  1239.85
                             1257.69  1279.87  1344.07  1358.29  1381.85
                             1411.95  1449.29  1458.35  1467.87  1500.94
                             1514.91  1527.62  1547.39  1557.73  1569.02
                             1600.79  1619.14  1624.95  1642.24  1698.46
                             1722.58  1741.83  1744.32  1747.39  1784.94
                             1820.80  1844.39  1865.60  1916.08  1931.31
                             1936.63  1942.38  1966.19  1994.43  2045.89
                             2071.94  2077.17  2149.59  2171.14  2177.73
                             2180.17  2182.31  2185.45  2198.84  2204.31
                             2210.36  2368.36  2370.39  2445.28  2562.35
                             4387.51  4402.13  4423.44  4429.42  4446.85
                             4457.08  4467.27  4476.20  4496.55  4517.11
                             4519.79  4546.80  4597.27  4608.37  4614.36
                             4627.98  4648.52  4656.37

 Zero-point correction=                           0.309713 (Hartree/Particle)
 Thermal correction to Energy=                    0.329153
 Thermal correction to Enthalpy=                  0.330097
 Thermal correction to Gibbs Free Energy=         0.260620
 Sum of electronic and zero-point Energies=          -1281.246140
 Sum of electronic and thermal Energies=             -1281.226700
 Sum of electronic and thermal Enthalpies=           -1281.225756
 Sum of electronic and thermal Free Energies=        -1281.295233

                     E (Thermal)             CV                S
                      KCal/Mol        Cal/Mol-Kelvin    Cal/Mol-Kelvin
 Total                  206.547             73.163            146.228
 Electronic               0.000              0.000              0.000
 Translational            0.889              2.981             42.933
 Rotational               0.889              2.981             33.668
 Vibrational            204.769             67.201             69.626
 Vibration     1          0.593              1.984              6.048
 Vibration     2          0.594              1.984              5.835
 Vibration     3          0.594              1.981              5.303
 Vibration     4          0.597              1.973              4.424
 Vibration     5          0.599              1.964              3.956
 Vibration     6          0.602              1.955              3.614
 Vibration     7          0.604              1.950              3.480
 Vibration     8          0.607              1.940              3.236
 Vibration     9          0.622              1.891              2.546
 Vibration    10          0.626              1.877              2.416
 Vibration    11          0.630              1.864              2.308
 Vibration    12          0.639              1.837              2.114
 Vibration    13          0.645              1.818              1.999
 Vibration    14          0.656              1.784              1.823
 Vibration    15          0.663              1.762              1.726
 Vibration    16          0.685              1.697              1.490
 Vibration    17          0.697              1.661              1.380
 Vibration    18          0.701              1.649              1.345
 Vibration    19          0.715              1.610              1.246
 Vibration    20          0.727              1.576              1.167
 Vibration    21          0.738              1.544              1.100
 Vibration    22          0.768              1.465              0.953
 Vibration    23          0.780              1.433              0.901
 Vibration    24          0.789              1.410              0.867
 Vibration    25          0.818              1.338              0.765
 Vibration    26          0.849              1.265              0.675
 Vibration    27          0.877              1.201              0.605
 Vibration    28          0.902              1.147              0.551
 Vibration    29          0.950              1.048              0.463

 Optimization completed.
    -- Stationary point found.
 Normal termination of Gaussian 16 at Sun Dec 13 17:31:08 2020.

 ----------------------------------------------------------------------
 # B3LYP/6-311++G(d,p) empiricaldispersion=gd3bj scf=xqc pop=npa geom=c
 heck
 ----------------------------------------------------------------------

 ---------------------------------------
 CID_45358479_JID_10819_Energie_neutraal
 ---------------------------------------
 Structure from the checkpoint file:  "JID_10819.chk"
 Charge =  0 Multiplicity = 1

 SCF Done:  E(RB3LYP) =  -1281.82599741     A.U. after   17 cycles
 Normal termination of Gaussian 16 at Sun Dec 13 17:40:59 2020.

 ----------------------------------------------------------------------
 # B3LYP/6-311++G(d,p) empiricaldispersion=gd3bj scf=xqc pop=npa geom=c
 heck
 ----------------------------------------------------------------------

 -------------------------------------
 CID_45358479_JID_10819_Energie_kation
 -------------------------------------
 Structure from the checkpoint file:  "JID_10819.chk"
 Charge =  1 Multiplicity = 2

 SCF Done:  E(UB3LYP) =  -1281.50931851     A.U. after   26 cycles
 Normal termination of Gaussian 16 at Sun Dec 13 18:01:36 2020.
 Gaussian 16:  ES64L-G16RevA.03 25-Dec-2016

 ----------------------------------------------------------------------
 # B3LYP/6-311++G(d,p) empiricaldispersion=gd3bj scf=xqc pop=npa geom=c
 heck
 ----------------------------------------------------------------------

 ------------------------------------
 CID_45358479_JID_10819_Energie_anion
 ------------------------------------
 Structure from the checkpoint file:  "JID_10819.chk"
 Charge = -1 Multiplicity = 2

                         Standard orientation:
 ---------------------------------------------------------------------
 Center     Atomic      Atomic             Coordinates (Angstroms)
 Number     Number       Type             X           Y           Z
 ---------------------------------------------------------------------
      1          6           0        4.138281    1.040674   -1.020811
      2          6           0        4.162862   -0.401585   -0.539161
      3          8           0        2.819131   -0.900846   -0.350322
      4          6           0        2.228121   -0.586607    0.827918
      5          8           0        2.787244    0.041023    1.709173
      6          6           0        0.818526   -1.013258    0.926947
      7          6           0        0.084817   -1.766417    0.076025
      8          6           0       -1.363927   -1.723196    0.502768
      9          6           0       -1.340490   -1.208439    1.952770
     10          6           0        0.010648   -0.474538    2.086711
     11         16           0       -2.343586   -0.593452   -0.606350
     12          8           0       -2.154789   -1.054299   -1.994037
     13          8           0       -3.692749   -0.483575   -0.024902
     14          6           0       -1.530567    0.995406   -0.426673
     15          6           0       -2.077851    1.936147    0.445144
     16          6           0       -1.399567    3.136802    0.653722
     17          6           0       -0.187367    3.376216    0.003075
     18          6           0        0.340868    2.430838   -0.879819
     19          6           0       -0.334582    1.233411   -1.106632
     20          6           0        0.488546   -2.536688   -1.139983
     21          1           0        3.555586    1.128435   -1.944012
     22          1           0        5.157976    1.387234   -1.222294
     23          1           0        3.697777    1.687827   -0.257597
     24          1           0        4.597151   -1.069121   -1.286687
     25          1           0        4.712062   -0.496831    0.399979
     26          1           0       -1.903630   -2.666796    0.364686
     27          1           0       -2.208159   -0.589586    2.191944
     28          1           0       -1.369095   -2.076208    2.619482
     29          1           0        0.506990   -0.668722    3.042232
     30          1           0       -0.094244    0.613521    2.007676
     31          1           0       -3.019117    1.721110    0.938792
     32          1           0       -1.814428    3.881756    1.325901
     33          1           0        0.345246    4.306209    0.178912
     34          1           0        1.278741    2.625066   -1.390856
     35          1           0        0.056203    0.495395   -1.797074
     36          1           0        0.140936   -3.573872   -1.044575
     37          1           0       -0.009271   -2.130970   -2.027611
     38          1           0        1.566033   -2.530235   -1.288613
 ---------------------------------------------------------------------

 SCF Done:  E(UB3LYP) =  -1281.83894527     A.U. after   33 cycles
 SCF Done:  E(UB3LYP) =  -1281.83894527     a.u. after    1 cycles

 The electronic state is 2-A.
 Alpha  occ. eigenvalues --  -88.90233 -19.02802 -18.98318 -18.98250 -18.95257
 Alpha  occ. eigenvalues --  -10.13713 -10.11822 -10.08057 -10.07553 -10.06960
 Alpha  occ. eigenvalues --  -10.06770 -10.06613 -10.06593 -10.06456 -10.06324
 Alpha  occ. eigenvalues --  -10.05702 -10.03967 -10.03637 -10.03312 -10.02770
 Alpha  occ. eigenvalues --   -7.96824  -5.93108  -5.92967  -5.92889  -0.97239
 Alpha  occ. eigenvalues --   -0.96491  -0.87200  -0.87184  -0.75232  -0.73334
 Alpha  occ. eigenvalues --   -0.66540  -0.65411  -0.64152  -0.62513  -0.61366
 Alpha  occ. eigenvalues --   -0.56366  -0.54036  -0.53060  -0.50067  -0.48127
 Alpha  occ. eigenvalues --   -0.46439  -0.44827  -0.41834  -0.40635  -0.37593
 Alpha  occ. eigenvalues --   -0.36638  -0.36209  -0.35426  -0.34996  -0.34232
 Alpha  occ. eigenvalues --   -0.33549  -0.32938  -0.32031  -0.31749  -0.31571
 Alpha  occ. eigenvalues --   -0.30266  -0.29068  -0.28401  -0.28201  -0.27271
 Alpha  occ. eigenvalues --   -0.26430  -0.26020  -0.25211  -0.24149  -0.23761
 Alpha  occ. eigenvalues --   -0.23320  -0.22927  -0.22030  -0.21356  -0.20341
 Alpha  occ. eigenvalues --   -0.19293  -0.17648  -0.17564  -0.16755  -0.15364
 Alpha  occ. eigenvalues --   -0.15122  -0.13569  -0.11098   0.04046
 Alpha virt. eigenvalues --    0.06841   0.07275   0.08090   0.08869   0.09322
 Alpha virt. eigenvalues --    0.09599   0.09833   0.10419   0.11015   0.11696
 Alpha virt. eigenvalues --    0.11950   0.12748   0.13202   0.13734   0.13855

  Beta  occ. eigenvalues --  -88.90186 -19.02744 -18.98307 -18.98204 -18.94969
  Beta  occ. eigenvalues --  -10.13484 -10.11825 -10.08028 -10.07418 -10.06927
  Beta  occ. eigenvalues --  -10.06778 -10.06638 -10.06584 -10.06355 -10.06142
  Beta  occ. eigenvalues --  -10.05694 -10.03979 -10.03341 -10.03272 -10.02620
  Beta  occ. eigenvalues --   -7.96775  -5.93075  -5.92930  -5.92779  -0.97136
  Beta  occ. eigenvalues --   -0.96242  -0.87124  -0.86766  -0.75023  -0.72999
  Beta  occ. eigenvalues --   -0.66446  -0.65104  -0.64000  -0.62252  -0.61055
  Beta  occ. eigenvalues --   -0.56112  -0.53911  -0.52791  -0.50006  -0.47907
  Beta  occ. eigenvalues --   -0.46081  -0.44657  -0.41674  -0.40510  -0.37286
  Beta  occ. eigenvalues --   -0.36440  -0.36079  -0.35210  -0.34808  -0.34053
  Beta  occ. eigenvalues --   -0.33413  -0.32649  -0.31972  -0.31662  -0.31408
  Beta  occ. eigenvalues --   -0.30084  -0.28920  -0.28226  -0.27903  -0.26788
  Beta  occ. eigenvalues --   -0.26105  -0.25676  -0.24969  -0.24080  -0.23682
  Beta  occ. eigenvalues --   -0.23156  -0.22784  -0.21868  -0.21198  -0.20189
  Beta  occ. eigenvalues --   -0.19180  -0.17518  -0.16647  -0.16303  -0.14724
  Beta  occ. eigenvalues --   -0.14514  -0.13274  -0.09651
  Beta virt. eigenvalues --    0.07073   0.08027   0.08211   0.08810   0.09420
  Beta virt. eigenvalues --    0.09478   0.09798   0.09956   0.10421   0.11117
  Beta virt. eigenvalues --    0.11697   0.11908   0.12688   0.13143   0.13743

 Mulliken charges and spin densities:
               1          2
     1  C   -0.397709  -0.041012
     2  C   -0.112487   0.004478
     3  O    0.038930   0.006002
     4  C   -0.980893   0.166699
     5  O   -0.270910   0.095140
     6  C    0.674402   0.047656
     7  C   -0.186716   0.250541
     8  C   -0.371956   0.057919
     9  C   -0.655283   0.001576
    10  C    0.105064  -0.016198
    11  S    0.182198   0.047256
    12  O   -0.154353  -0.012998
    13  O   -0.138061   0.016067
    14  C   -0.017599   0.043945
    15  C    0.166129   0.050477
    16  C   -0.501966  -0.004697
    17  C   -0.385815   0.128303
    18  C   -0.243556  -0.023987
    19  C   -0.235011   0.093252
    20  C   -0.436815  -0.029504
    21  H    0.149178  -0.002934
    22  H    0.062283   0.043402
    23  H    0.191321   0.013583
    24  H    0.106095   0.024912
    25  H    0.153378  -0.004856
    26  H    0.288628   0.000377
    27  H    0.172012  -0.000283
    28  H    0.129241   0.001170
    29  H    0.196902   0.005768
    30  H    0.181017   0.009144
    31  H    0.223014   0.000661
    32  H    0.145861   0.000248
    33  H    0.132849  -0.009780
    34  H    0.146444   0.001846
    35  H    0.219993  -0.005088
    36  H    0.102933   0.032313
    37  H    0.174782   0.008243
    38  H    0.146478   0.000359
 Sum of Mulliken charges =  -1.00000   1.00000

 Dipole moment (field-independent basis, Debye):
    X=              2.8305    Y=              1.1286    Z=              0.2640  Tot=              3.0586
 Quadrupole moment (field-independent basis, Debye-Ang):
   XX=           -170.8703   YY=           -141.0880   ZZ=           -147.5739
   XY=             -1.9745   XZ=            -18.0860   YZ=             -2.6301

 Summary of Natural Population Analysis:

                                       Natural Population
                Natural  -----------------------------------------------
    Atom  No    Charge         Core      Valence    Rydberg      Total
 -----------------------------------------------------------------------
      C    1   -0.29889      0.99967     2.29527    0.00395     3.29889
      C    2   -0.01541      0.99959     2.00597    0.00984     3.01541
      O    3   -0.28657      0.99986     3.27782    0.00888     4.28657
      C    4    0.42148      0.99959     1.55593    0.02300     2.57852
      O    5   -0.30010      0.99988     3.29486    0.00536     4.30010
      C    6   -0.04123      0.99937     2.02757    0.01429     3.04123
      C    7    0.06369      0.99944     1.92615    0.01072     2.93631
      C    8   -0.18889      0.99952     2.17539    0.01399     3.18889
      C    9   -0.19330      0.99963     2.18643    0.00724     3.19330
      C   10   -0.19574      0.99962     2.18881    0.00731     3.19574
      S   11    1.04325      4.99912     1.86586    0.09177     6.95675
      O   12   -0.47656      0.99991     3.47108    0.00558     4.47656
      O   13   -0.47816      0.99991     3.47272    0.00553     4.47816
      C   14   -0.12405      0.99937     2.10423    0.02045     3.12405
      C   15   -0.09001      0.99951     2.08116    0.00934     3.09001
      C   16   -0.11361      0.99957     2.10488    0.00916     3.11361
      C   17   -0.06339      0.99958     2.05503    0.00878     3.06339
      C   18   -0.11072      0.99957     2.10283    0.00832     3.11072
      C   19   -0.07146      0.99951     2.05887    0.01308     3.07146
      C   20   -0.30741      0.99962     2.30254    0.00524     3.30741
      H   21    0.09693      0.00000     0.40212    0.00094     0.40307
      H   22    0.09224      0.00000     0.40646    0.00130     0.40776
      H   23    0.11016      0.00000     0.38884    0.00100     0.38984
      H   24    0.08101      0.00000     0.41774    0.00125     0.41899
      H   25    0.09243      0.00000     0.40561    0.00196     0.40757
      H   26    0.10974      0.00000     0.38885    0.00141     0.39026
      H   27    0.10535      0.00000     0.39349    0.00116     0.39465
      H   28    0.09753      0.00000     0.40137    0.00110     0.40247
      H   29    0.10265      0.00000     0.39620    0.00115     0.39735
      H   30    0.10524      0.00000     0.39318    0.00158     0.39476
      H   31    0.11200      0.00000     0.38703    0.00097     0.38800
      H   32    0.09559      0.00000     0.40342    0.00098     0.40441
      H   33    0.09283      0.00000     0.40622    0.00095     0.40717
      H   34    0.09778      0.00000     0.40088    0.00134     0.40222
      H   35    0.11250      0.00000     0.38624    0.00126     0.38750
      H   36    0.09708      0.00000     0.40178    0.00115     0.40292
      H   37    0.11555      0.00000     0.38340    0.00104     0.38445
      H   38    0.11045      0.00000     0.38873    0.00082     0.38955
 =======================================================================
   * Total *    0.00000     23.99181    53.70498    0.30321    78.00000

 Normal termination of Gaussian 16 at Sun Dec 13 18:26:57 2020.
