 Gaussian 16, Revision A.03,

 -----------------------------------------------------------
 # opt freq B3LYP/6-31G(d) empiricaldispersion=gd3bj scf=xqc
 -----------------------------------------------------------

 -------------------------------
 CID_53872992_JID_10494_neutraal
 -------------------------------
 Symbolic Z-matrix:
 Charge =  0 Multiplicity = 1

 SCF Done:  E(RB3LYP) =  -932.499858243     A.U. after   15 cycles
 SCF Done:  E(RB3LYP) =  -932.508059760     A.U. after   14 cycles
 SCF Done:  E(RB3LYP) =  -932.502603702     A.U. after   15 cycles
 SCF Done:  E(RB3LYP) =  -932.507536756     A.U. after   14 cycles
 SCF Done:  E(RB3LYP) =  -932.509747076     A.U. after   10 cycles
 SCF Done:  E(RB3LYP) =  -932.511184266     A.U. after   13 cycles
 SCF Done:  E(RB3LYP) =  -932.512054593     A.U. after   13 cycles
 SCF Done:  E(RB3LYP) =  -932.512571431     A.U. after   13 cycles
 SCF Done:  E(RB3LYP) =  -932.512900139     A.U. after   13 cycles
 SCF Done:  E(RB3LYP) =  -932.513178479     A.U. after   12 cycles
 SCF Done:  E(RB3LYP) =  -932.513975825     A.U. after   11 cycles
 SCF Done:  E(RB3LYP) =  -932.513988094     A.U. after   11 cycles
 SCF Done:  E(RB3LYP) =  -932.513990293     A.U. after   10 cycles
 SCF Done:  E(RB3LYP) =  -932.513993426     A.U. after   10 cycles
 SCF Done:  E(RB3LYP) =  -932.513993731     A.U. after    9 cycles
 SCF Done:  E(RB3LYP) =  -932.513993886     A.U. after    8 cycles
 Optimization completed.
    -- Stationary point found.
 Normal termination of Gaussian 16 at Mon Dec 14 14:04:40 2020.

 --------------------------------------------------------------------
 #N Geom=AllCheck Guess=TCheck SCRF=Check GenChk RB3LYP/6-31G(d) Freq
 --------------------------------------------------------------------

 Structure from the checkpoint file:  "JID_10494.chk"
 -------------------------------
 CID_53872992_JID_10494_neutraal
 -------------------------------
 Charge =  0 Multiplicity = 1

 SCF Done:  E(RB3LYP) =  -932.513993886     A.U. after    1 cycles

  Exact polarizability: 221.353  10.659 162.113 -12.932  13.936 119.339
 Approx polarizability: 307.149  27.143 262.324 -17.283  28.876 197.327

                      1                      2                      3
                      A                      A                      A
 Frequencies --     14.8687                29.4327                46.6980
 Red. masses --      5.8553                 4.5932                 4.1229
 Frc consts  --      0.0008                 0.0023                 0.0053
 IR Inten    --      0.0107                 0.2184                 0.2216

                      4                      5                      6
                      A                      A                      A
 Frequencies --     51.4500                63.2540                67.9503
 Red. masses --      5.1784                 2.3883                 5.5788
 Frc consts  --      0.0081                 0.0056                 0.0152
 IR Inten    --      0.7678                 0.4270                 0.1137

                      7                      8                      9
                      A                      A                      A
 Frequencies --     79.1627               100.8612               103.3848
 Red. masses --      6.4982                 6.7026                 7.3613
 Frc consts  --      0.0240                 0.0402                 0.0464
 IR Inten    --      1.0910                 2.3963                 2.5894

                     10                     11                     12
                      A                      A                      A
 Frequencies --    147.5487               175.3925               178.3941
 Red. masses --      4.8632                 3.0071                 3.2207
 Frc consts  --      0.0624                 0.0545                 0.0604
 IR Inten    --      6.0694                 3.8826                 0.6859

                     13                     14                     15
                      A                      A                      A
 Frequencies --    188.1615               197.0214               246.4534
 Red. masses --      1.4285                 3.1762                 3.8859
 Frc consts  --      0.0298                 0.0726                 0.1391
 IR Inten    --      0.1334                 3.1857                 7.1135

                     16                     17                     18
                      A                      A                      A
 Frequencies --    266.6057               280.9249               287.8123
 Red. masses --      2.9719                 2.3674                 2.1803
 Frc consts  --      0.1245                 0.1101                 0.1064
 IR Inten    --      6.2100                 2.0134                 7.3063

                     19                     20                     21
                      A                      A                      A
 Frequencies --    340.5000               366.8455               394.9966
 Red. masses --      4.5472                 3.5869                 3.9640
 Frc consts  --      0.3106                 0.2844                 0.3644
 IR Inten    --     10.4267                10.2764                 1.2356

                     22                     23                     24
                      A                      A                      A
 Frequencies --    422.1780               444.2551               459.0338
 Red. masses --      8.4658                 3.8379                 5.7004
 Frc consts  --      0.8890                 0.4463                 0.7077
 IR Inten    --      7.8460                 7.1119                 1.9369

                     25                     26                     27
                      A                      A                      A
 Frequencies --    498.3104               517.1259               540.7729
 Red. masses --      5.1948                 7.1350                 6.2587
 Frc consts  --      0.7600                 1.1242                 1.0784
 IR Inten    --      3.3411                 4.2404                 1.2325

                     28                     29                     30
                      A                      A                      A
 Frequencies --    556.6935               579.4697               611.4392
 Red. masses --      5.5050                 5.0357                 5.5430
 Frc consts  --      1.0052                 0.9963                 1.2210
 IR Inten    --      4.7042                19.3898                 6.6917

                     31                     32                     33
                      A                      A                      A
 Frequencies --    644.1547               661.4880               732.5586
 Red. masses --      3.2615                 1.6840                 3.7231
 Frc consts  --      0.7974                 0.4341                 1.1772
 IR Inten    --     16.8248                39.9583                49.3308

                     34                     35                     36
                      A                      A                      A
 Frequencies --    736.6120               738.4552               760.9846
 Red. masses --      3.1172                 3.7928                 2.4576
 Frc consts  --      0.9965                 1.2186                 0.8385
 IR Inten    --     20.0991                 3.8391                 8.3919

                     37                     38                     39
                      A                      A                      A
 Frequencies --    772.2779               786.7858               821.6033
 Red. masses --      7.1376                 2.3328                 1.1197
 Frc consts  --      2.5081                 0.8508                 0.4453
 IR Inten    --     39.1523                38.4953                 0.4579

                     40                     41                     42
                      A                      A                      A
 Frequencies --    837.6009               867.8968               875.1149
 Red. masses --      4.8224                 2.7703                 1.4739
 Frc consts  --      1.9933                 1.2294                 0.6651
 IR Inten    --      2.8542                 5.4145                 0.8910

                     43                     44                     45
                      A                      A                      A
 Frequencies --    909.3130               936.9149               951.1418
 Red. masses --      2.3050                 1.3841                 2.1358
 Frc consts  --      1.1229                 0.7158                 1.1384
 IR Inten    --     14.2829                 0.3908                 5.9169

                     46                     47                     48
                      A                      A                      A
 Frequencies --    977.5773              1015.4954              1021.3122
 Red. masses --      1.2477                 3.4509                 1.8032
 Frc consts  --      0.7025                 2.0967                 1.1082
 IR Inten    --      0.0714                21.3491                 2.9849

                     49                     50                     51
                      A                      A                      A
 Frequencies --   1024.4209              1061.0212              1077.6539
 Red. masses --      2.9819                 3.8926                 2.0951
 Frc consts  --      1.8438                 2.5819                 1.4335
 IR Inten    --     11.1619                23.6544                 5.2784

                     52                     53                     54
                      A                      A                      A
 Frequencies --   1083.7862              1094.7066              1142.7776
 Red. masses --      1.4867                 5.1877                 1.8731
 Frc consts  --      1.0289                 3.6629                 1.4413
 IR Inten    --      5.0073               136.0629                16.9318

                     55                     56                     57
                      A                      A                      A
 Frequencies --   1150.9163              1193.9279              1194.6250
 Red. masses --      2.1325                 1.5297                 1.0944
 Frc consts  --      1.6643                 1.2847                 0.9202
 IR Inten    --      8.4310                 6.8281                 0.2238

                     58                     59                     60
                      A                      A                      A
 Frequencies --   1210.7234              1248.0459              1265.5707
 Red. masses --      2.4217                 2.7650                 1.4766
 Frc consts  --      2.0915                 2.5375                 1.3935
 IR Inten    --     12.3337                16.8503               176.9966

                     61                     62                     63
                      A                      A                      A
 Frequencies --   1308.4590              1314.4346              1318.4019
 Red. masses --      2.5117                 1.1039                 1.5401
 Frc consts  --      2.5336                 1.1237                 1.5773
 IR Inten    --    380.8885                 2.6660                 1.2567

                     64                     65                     66
                      A                      A                      A
 Frequencies --   1337.3798              1349.8304              1364.9767
 Red. masses --      1.4484                 5.4728                 3.4005
 Frc consts  --      1.5264                 5.8752                 3.7329
 IR Inten    --     31.4473                 4.0825               307.3320

                     67                     68                     69
                      A                      A                      A
 Frequencies --   1412.5625              1426.3513              1446.9943
 Red. masses --      1.2629                 1.3905                 1.2424
 Frc consts  --      1.4847                 1.6668                 1.5327
 IR Inten    --     12.2042                53.3763                 2.4068

                     70                     71                     72
                      A                      A                      A
 Frequencies --   1452.7048              1463.6100              1488.9009
 Red. masses --      1.4595                 1.6969                 1.9792
 Frc consts  --      1.8147                 2.1417                 2.5850
 IR Inten    --      6.7852                40.8145                 7.0011

                     73                     74                     75
                      A                      A                      A
 Frequencies --   1512.2659              1517.8359              1526.8574
 Red. masses --      1.0648                 1.0392                 1.0716
 Frc consts  --      1.4347                 1.4106                 1.4719
 IR Inten    --      6.9004                 6.4478                 0.8456

                     76                     77                     78
                      A                      A                      A
 Frequencies --   1529.1545              1538.3672              1541.9886
 Red. masses --      1.8559                 1.3587                 1.0819
 Frc consts  --      2.5569                 1.8945                 1.5156
 IR Inten    --     11.9867                24.4701                11.6559

                     79                     80                     81
                      A                      A                      A
 Frequencies --   1635.6459              1660.6524              1749.3079
 Red. masses --      5.8632                 5.7546                10.1691
 Frc consts  --      9.2420                 9.3503                18.3343
 IR Inten    --      5.1284                 9.0632                99.1340

                     82                     83                     84
                      A                      A                      A
 Frequencies --   1795.8603              1850.9389              2361.4756
 Red. masses --      9.1957                10.1368                12.6578
 Frc consts  --     17.4735                20.4615                41.5887
 IR Inten    --    339.4691               490.3140                15.6400

                     85                     86                     87
                      A                      A                      A
 Frequencies --   3046.7135              3066.4245              3095.0748
 Red. masses --      1.0372                 1.0361                 1.0821
 Frc consts  --      5.6724                 5.7401                 6.1074
 IR Inten    --     15.3839                10.1707                14.4663

                     88                     89                     90
                      A                      A                      A
 Frequencies --   3096.1169              3103.3096              3132.4489
 Red. masses --      1.0582                 1.1000                 1.1032
 Frc consts  --      5.9767                 6.2418                 6.3780
 IR Inten    --     11.3266                 8.0975                14.8429

                     91                     92                     93
                      A                      A                      A
 Frequencies --   3133.8089              3142.7745              3160.0367
 Red. masses --      1.1020                 1.1047                 1.1077
 Frc consts  --      6.3763                 6.4288                 6.5172
 IR Inten    --     17.6121                10.4270                25.9771

                     94                     95                     96
                      A                      A                      A
 Frequencies --   3182.7711              3192.5780              3195.5758
 Red. masses --      1.0868                 1.0878                 1.0904
 Frc consts  --      6.4864                 6.5325                 6.5603
 IR Inten    --      7.8315                 5.0168                 7.6974

                     97                     98                     99
                      A                      A                      A
 Frequencies --   3203.4738              3214.8187              3593.5923
 Red. masses --      1.0924                 1.0976                 1.0763
 Frc consts  --      6.6053                 6.6838                 8.1893
 IR Inten    --     20.9067                21.0416                72.7661

 - Thermochemistry -
 -------------------
 Temperature   298.150 Kelvin.  Pressure   1.00000 Atm.
 Atom     1 has atomic number  6 and mass  12.00000

 Molecular mass:   273.11134 amu.
 Principal axes and moments of inertia in atomic units:
                           1         2         3
     Eigenvalues --  2746.130658879.466579957.62369
           X            0.99975   0.02048  -0.00889
           Y           -0.02047   0.99979   0.00228
           Z            0.00893  -0.00210   0.99996
 This molecule is an asymmetric top.
 Rotational symmetry number  1.
 Warning -- assumption of classical behavior for rotation
           may cause significant error
 Rotational temperatures (Kelvin)      0.03154     0.00975     0.00870
 Rotational constants (GHZ):           0.65719     0.20325     0.18124
 Zero-point vibrational energy     726832.7 (Joules/Mol)
                                  173.71718 (Kcal/Mol)
 Warning -- explicit consideration of  30 degrees of freedom as
           vibrations may cause significant error
 Vibrational temperatures:     21.39    42.35    67.19    74.03    91.01
          (Kelvin)             97.77   113.90   145.12   148.75   212.29
                              252.35   256.67   270.72   283.47   354.59
                              383.59   404.19   414.10   489.90   527.81
                              568.31   607.42   639.18   660.45   716.96
                              744.03   778.05   800.96   833.73   879.72
                              926.79   951.73  1053.99  1059.82  1062.47
                             1094.89  1111.14  1132.01  1182.10  1205.12
                             1248.71  1259.10  1308.30  1348.01  1368.48
                             1406.52  1461.07  1469.44  1473.91  1526.57
                             1550.50  1559.33  1575.04  1644.20  1655.91
                             1717.80  1718.80  1741.96  1795.66  1820.87
                             1882.58  1891.18  1896.89  1924.19  1942.10
                             1963.90  2032.36  2052.20  2081.90  2090.12
                             2105.81  2142.20  2175.81  2183.83  2196.81
                             2200.11  2213.37  2218.58  2353.33  2389.31
                             2516.86  2583.84  2663.09  3397.64  4383.54
                             4411.90  4453.12  4454.62  4464.97  4506.90
                             4508.85  4521.75  4546.59  4579.30  4593.41
                             4597.72  4609.08  4625.41  5170.38

 Zero-point correction=                           0.276836 (Hartree/Particle)
 Thermal correction to Energy=                    0.296511
 Thermal correction to Enthalpy=                  0.297455
 Thermal correction to Gibbs Free Energy=         0.225971
 Sum of electronic and zero-point Energies=           -932.237158
 Sum of electronic and thermal Energies=              -932.217483
 Sum of electronic and thermal Enthalpies=            -932.216539
 Sum of electronic and thermal Free Energies=         -932.288023

                     E (Thermal)             CV                S
                      KCal/Mol        Cal/Mol-Kelvin    Cal/Mol-Kelvin
 Total                  186.063             71.427            150.451
 Electronic               0.000              0.000              0.000
 Translational            0.889              2.981             42.713
 Rotational               0.889              2.981             33.851
 Vibrational            184.286             65.466             73.887
 Vibration     1          0.593              1.986              7.223
 Vibration     2          0.593              1.984              5.867
 Vibration     3          0.595              1.979              4.953
 Vibration     4          0.596              1.977              4.761
 Vibration     5          0.597              1.972              4.353
 Vibration     6          0.598              1.969              4.212
 Vibration     7          0.600              1.963              3.912
 Vibration     8          0.604              1.948              3.438
 Vibration     9          0.605              1.946              3.389
 Vibration    10          0.617              1.905              2.704
 Vibration    11          0.627              1.873              2.377
 Vibration    12          0.629              1.869              2.345
 Vibration    13          0.633              1.856              2.246
 Vibration    14          0.636              1.844              2.161
 Vibration    15          0.661              1.769              1.756
 Vibration    16          0.672              1.734              1.618
 Vibration    17          0.681              1.709              1.528
 Vibration    18          0.685              1.696              1.487
 Vibration    19          0.720              1.595              1.210
 Vibration    20          0.740              1.540              1.093
 Vibration    21          0.762              1.481              0.981
 Vibration    22          0.785              1.422              0.885
 Vibration    23          0.804              1.374              0.813
 Vibration    24          0.817              1.341              0.769
 Vibration    25          0.854              1.254              0.662
 Vibration    26          0.872              1.212              0.617
 Vibration    27          0.896              1.160              0.564
 Vibration    28          0.912              1.125              0.530
 Vibration    29          0.936              1.076              0.486
 Vibration    30          0.971              1.008              0.430

                           ! Non-Optimized Parameters !
 Normal termination of Gaussian 16 at Mon Dec 14 14:23:07 2020.

 ----------------------------------------------------------------------
 # B3LYP/6-311++G(d,p) empiricaldispersion=gd3bj scf=xqc pop=npa geom=c
 heck
 ----------------------------------------------------------------------

 ---------------------------------------
 CID_53872992_JID_10494_Energie_neutraal
 ---------------------------------------
 Structure from the checkpoint file:  "JID_10494.chk"
 Charge =  0 Multiplicity = 1

 SCF Done:  E(RB3LYP) =  -932.775844370     A.U. after   15 cycles
 Normal termination of Gaussian 16 at Mon Dec 14 14:30:54 2020.

 ----------------------------------------------------------------------
 # B3LYP/6-311++G(d,p) empiricaldispersion=gd3bj scf=xqc pop=npa geom=c
 heck
 ----------------------------------------------------------------------

 -------------------------------------
 CID_53872992_JID_10494_Energie_kation
 -------------------------------------
 Structure from the checkpoint file:  "JID_10494.chk"
 Charge =  1 Multiplicity = 2

 SCF Done:  E(UB3LYP) =  -932.471981259     A.U. after   26 cycles
 Normal termination of Gaussian 16 at Mon Dec 14 14:48:42 2020.
 Gaussian 16:  ES64L-G16RevA.03 25-Dec-2016

 ----------------------------------------------------------------------
 # B3LYP/6-311++G(d,p) empiricaldispersion=gd3bj scf=xqc pop=npa geom=c
 heck
 ----------------------------------------------------------------------

 ------------------------------------
 CID_53872992_JID_10494_Energie_anion
 ------------------------------------
 Structure from the checkpoint file:  "JID_10494.chk"
 Charge = -1 Multiplicity = 2

                         Standard orientation:
 ---------------------------------------------------------------------
 Center     Atomic      Atomic             Coordinates (Angstroms)
 Number     Number       Type             X           Y           Z
 ---------------------------------------------------------------------
      1          6           0       -3.261910   -2.380035    1.246297
      2          6           0       -3.889995   -1.214016    0.513458
      3          8           0       -2.881695   -0.167524    0.427486
      4          6           0       -3.261326    0.953732   -0.195358
      5          8           0       -4.394023    1.269842   -0.473243
      6          7           0       -2.169342    1.789386   -0.464703
      7          6           0       -0.798412    1.586101   -0.523029
      8          8           0       -0.050266    2.540616   -0.613401
      9          6           0       -0.194917    0.167037   -0.505673
     10          6           0        0.070373   -0.287804    0.942704
     11          7           0        1.211344   -0.557229    1.418880
     12          6           0        2.376199   -0.530570    0.612276
     13          6           0        2.704964   -1.650083   -0.160542
     14          6           0        3.882980   -1.660092   -0.905377
     15          6           0        4.731522   -0.554142   -0.876904
     16          6           0        4.393299    0.557479   -0.104504
     17          6           0        3.219439    0.595948    0.653260
     18          6           0        2.829550    1.807635    1.458287
     19          6           0       -0.926057   -0.841947   -1.270332
     20          7           0       -1.462764   -1.662246   -1.892533
     21          1           0       -2.399950   -2.763911    0.694001
     22          1           0       -3.996309   -3.186339    1.342304
     23          1           0       -2.941425   -2.087906    2.251641
     24          1           0       -4.180848   -1.479908   -0.505914
     25          1           0       -4.759498   -0.805185    1.033281
     26          1           0       -2.437876    2.744988   -0.673689
     27          1           0        0.780507    0.297927   -0.984327
     28          1           0       -0.802915   -0.349725    1.588369
     29          1           0        2.035854   -2.505430   -0.162922
     30          1           0        4.132195   -2.530686   -1.504876
     31          1           0        5.652196   -0.554748   -1.452669
     32          1           0        5.050592    1.423178   -0.087559
     33          1           0        1.986356    2.333126    0.992213
     34          1           0        2.516570    1.525141    2.469949
     35          1           0        3.663504    2.511167    1.534592
 ---------------------------------------------------------------------

 SCF Done:  E(UB3LYP) =  -932.792857893     A.U. after   30 cycles

 The electronic state is 2-A.
 Alpha  occ. eigenvalues --  -19.05890 -18.98778 -18.95449 -14.23400 -14.18837
 Alpha  occ. eigenvalues --  -14.16376 -10.20624 -10.13566 -10.13257 -10.09486
 Alpha  occ. eigenvalues --  -10.09146 -10.08909 -10.07516 -10.07324 -10.06833
 Alpha  occ. eigenvalues --  -10.06776 -10.06599 -10.06496 -10.05968 -10.04964
 Alpha  occ. eigenvalues --   -1.00735  -0.91824  -0.91285  -0.80947  -0.80401
 Alpha  occ. eigenvalues --   -0.78772  -0.73936  -0.67918  -0.66749  -0.65966
 Alpha  occ. eigenvalues --   -0.62769  -0.57525  -0.56331  -0.51753  -0.51169
 Alpha  occ. eigenvalues --   -0.48504  -0.47956  -0.44928  -0.43400  -0.41379
 Alpha  occ. eigenvalues --   -0.39768  -0.39461  -0.36605  -0.36248  -0.35749
 Alpha  occ. eigenvalues --   -0.34839  -0.33681  -0.32607  -0.31412  -0.30688
 Alpha  occ. eigenvalues --   -0.30500  -0.30232  -0.29745  -0.28832  -0.28097
 Alpha  occ. eigenvalues --   -0.27683  -0.26608  -0.25714  -0.25455  -0.24843
 Alpha  occ. eigenvalues --   -0.24434  -0.24164  -0.22529  -0.21651  -0.19747
 Alpha  occ. eigenvalues --   -0.19076  -0.18575  -0.16942  -0.16346  -0.14125
 Alpha  occ. eigenvalues --   -0.13377  -0.10158   0.04113
 Alpha virt. eigenvalues --    0.07440   0.07567   0.08829   0.09204   0.09505
 Alpha virt. eigenvalues --    0.09931   0.10064   0.10533   0.10868   0.11155
 Alpha virt. eigenvalues --    0.11618   0.12124   0.12983   0.13219   0.13749

  Beta  occ. eigenvalues --  -19.05870 -18.98637 -18.94994 -14.23467 -14.18818
  Beta  occ. eigenvalues --  -14.15896 -10.20460 -10.13258 -10.13146 -10.09545
  Beta  occ. eigenvalues --  -10.09054 -10.08929 -10.07515 -10.07017 -10.06810
  Beta  occ. eigenvalues --  -10.06764 -10.06592 -10.06500 -10.05945 -10.04963
  Beta  occ. eigenvalues --   -1.00582  -0.91446  -0.90717  -0.80334  -0.80154
  Beta  occ. eigenvalues --   -0.78678  -0.73784  -0.67893  -0.66514  -0.65797
  Beta  occ. eigenvalues --   -0.62640  -0.57481  -0.56170  -0.51376  -0.50824
  Beta  occ. eigenvalues --   -0.48368  -0.47784  -0.44531  -0.43158  -0.41132
  Beta  occ. eigenvalues --   -0.39492  -0.39309  -0.36362  -0.36076  -0.35538
  Beta  occ. eigenvalues --   -0.34513  -0.33294  -0.32515  -0.31280  -0.30556
  Beta  occ. eigenvalues --   -0.30460  -0.30205  -0.29245  -0.28569  -0.27812
  Beta  occ. eigenvalues --   -0.27534  -0.26203  -0.25410  -0.25210  -0.24395
  Beta  occ. eigenvalues --   -0.24181  -0.24022  -0.22371  -0.21477  -0.19450
  Beta  occ. eigenvalues --   -0.18504  -0.17059  -0.16597  -0.15348  -0.14045
  Beta  occ. eigenvalues --   -0.12892  -0.09788
  Beta virt. eigenvalues --    0.07413   0.07541   0.08830   0.09293   0.09727
  Beta virt. eigenvalues --    0.09908   0.10161   0.10575   0.10692   0.11284
  Beta virt. eigenvalues --    0.11621   0.12104   0.12649   0.12991   0.13307

 Mulliken charges and spin densities:
               1          2
     1  C   -0.553427  -0.001614
     2  C   -0.108705  -0.001559
     3  O   -0.150111   0.008716
     4  C    0.161244   0.093667
     5  O   -0.343565   0.047733
     6  N   -0.344610  -0.042688
     7  C   -0.340712   0.378643
     8  O   -0.360056   0.151588
     9  C    1.486192  -0.205915
    10  C   -0.750423   0.308259
    11  N    0.100927   0.205235
    12  C   -0.887753   0.006916
    13  C    0.094289  -0.010205
    14  C   -0.390036   0.013046
    15  C   -0.267008  -0.007159
    16  C   -0.314222   0.000269
    17  C    1.079555   0.012276
    18  C   -0.735789   0.002591
    19  C   -0.720543  -0.007896
    20  N   -0.314605   0.007178
    21  H    0.170062  -0.000014
    22  H    0.130375  -0.000801
    23  H    0.139746   0.002936
    24  H    0.199008   0.003297
    25  H    0.149207   0.005026
    26  H    0.310172   0.019024
    27  H    0.284368   0.011933
    28  H    0.225438  -0.006012
    29  H    0.167398  -0.000875
    30  H    0.134060   0.001447
    31  H    0.130822   0.000090
    32  H    0.124880   0.004542
    33  H    0.226861   0.000817
    34  H    0.162622  -0.000156
    35  H    0.104339  -0.000334
 Sum of Mulliken charges =  -1.00000   1.00000

 Dipole moment (field-independent basis, Debye):
    X=              0.9516    Y=             -1.8947    Z=              1.8744  Tot=              2.8300
 Quadrupole moment (field-independent basis, Debye-Ang):
   XX=           -161.6983   YY=           -138.3051   ZZ=           -135.9588
   XY=              8.0065   XZ=            -12.7458   YZ=             -0.3758

 Summary of Natural Population Analysis:

                                       Natural Population
                Natural  -----------------------------------------------
    Atom  No    Charge         Core      Valence    Rydberg      Total
 -----------------------------------------------------------------------
      C    1   -0.29597      0.99966     2.29202    0.00429     3.29597
      C    2   -0.01232      0.99959     2.00347    0.00926     3.01232
      O    3   -0.28753      0.99985     3.27651    0.01117     4.28753
      C    4    0.48677      0.99973     1.48884    0.02467     2.51323
      O    5   -0.31540      0.99987     3.31051    0.00502     4.31540
      N    6   -0.34366      0.99963     2.83432    0.00971     3.84366
      C    7    0.40660      0.99968     1.57021    0.02351     2.59340
      O    8   -0.26922      0.99987     3.26324    0.00610     4.26922
      C    9   -0.24005      0.99944     2.23026    0.01036     3.24005
      C   10    0.12900      0.99958     1.85435    0.01707     2.87100
      N   11   -0.16564      0.99961     2.65348    0.01254     3.66564
      C   12    0.07198      0.99941     1.91542    0.01320     2.92802
      C   13   -0.11358      0.99951     2.10544    0.00863     3.11358
      C   14   -0.10400      0.99957     2.09547    0.00896     3.10400
      C   15   -0.12414      0.99957     2.11482    0.00974     3.12414
      C   16   -0.09876      0.99953     2.09062    0.00861     3.09876
      C   17   -0.02136      0.99946     2.01397    0.00794     3.02136
      C   18   -0.29921      0.99964     2.29477    0.00479     3.29921
      C   19    0.18451      0.99963     1.79544    0.02042     2.81549
      N   20   -0.21056      0.99979     2.69961    0.01116     3.71056
      H   21    0.11161      0.00000     0.38747    0.00092     0.38839
      H   22    0.09589      0.00000     0.40338    0.00074     0.40411
      H   23    0.09971      0.00000     0.39934    0.00094     0.40029
      H   24    0.09369      0.00000     0.40480    0.00151     0.40631
      H   25    0.08882      0.00000     0.41007    0.00111     0.41118
      H   26    0.20227      0.00000     0.29609    0.00163     0.29773
      H   27    0.13819      0.00000     0.35976    0.00206     0.36181
      H   28    0.08580      0.00000     0.41289    0.00131     0.41420
      H   29    0.10298      0.00000     0.39564    0.00137     0.39702
      H   30    0.09490      0.00000     0.40412    0.00098     0.40510
      H   31    0.09394      0.00000     0.40504    0.00102     0.40606
      H   32    0.09379      0.00000     0.40522    0.00099     0.40621
      H   33    0.12215      0.00000     0.37683    0.00102     0.37785
      H   34    0.10709      0.00000     0.39192    0.00099     0.39291
      H   35    0.09171      0.00000     0.40745    0.00084     0.40829
 =======================================================================
   * Total *    0.00000     19.99263    51.76279    0.24458    72.00000

 Normal termination of Gaussian 16 at Mon Dec 14 15:09:09 2020.
