 Gaussian 16, Revision A.03,

 -----------------------------------------------------------
 # opt freq B3LYP/6-31G(d) empiricaldispersion=gd3bj scf=xqc
 -----------------------------------------------------------

 ------------------------------
 CID_81571169_JID_8375_neutraal
 ------------------------------
 Symbolic Z-matrix:
 Charge =  0 Multiplicity = 1

 SCF Done:  E(RB3LYP) =  -754.796307368     A.U. after   13 cycles
 SCF Done:  E(RB3LYP) =  -754.803388680     A.U. after   12 cycles
 SCF Done:  E(RB3LYP) =  -754.804625428     A.U. after   12 cycles
 SCF Done:  E(RB3LYP) =  -754.805462191     A.U. after   12 cycles
 SCF Done:  E(RB3LYP) =  -754.805916440     A.U. after   12 cycles
 SCF Done:  E(RB3LYP) =  -754.806101581     A.U. after   11 cycles
 SCF Done:  E(RB3LYP) =  -754.806282908     A.U. after   11 cycles
 SCF Done:  E(RB3LYP) =  -754.806351139     A.U. after   10 cycles
 SCF Done:  E(RB3LYP) =  -754.806392048     A.U. after   11 cycles
 SCF Done:  E(RB3LYP) =  -754.806423395     A.U. after   10 cycles
 SCF Done:  E(RB3LYP) =  -754.806629304     A.U. after    9 cycles
 SCF Done:  E(RB3LYP) =  -754.806629580     A.U. after    7 cycles
 SCF Done:  E(RB3LYP) =  -754.806629649     A.U. after    7 cycles
 SCF Done:  E(RB3LYP) =  -754.806629682     A.U. after    6 cycles
 SCF Done:  E(RB3LYP) =  -754.806629693     A.U. after    6 cycles
 Optimization completed.
    -- Stationary point found.
 Normal termination of Gaussian 16 at Fri Dec 11 20:35:11 2020.

 --------------------------------------------------------------------
 #N Geom=AllCheck Guess=TCheck SCRF=Check GenChk RB3LYP/6-31G(d) Freq
 --------------------------------------------------------------------

 Structure from the checkpoint file:  "JID_8375.chk"
 ------------------------------
 CID_81571169_JID_8375_neutraal
 ------------------------------
 Charge =  0 Multiplicity = 1

 SCF Done:  E(RB3LYP) =  -754.806629693     A.U. after    1 cycles

  Exact polarizability: 210.715  -1.044 174.641  14.927   5.164 132.032
 Approx polarizability: 274.104  -5.211 273.181  32.235  11.109 204.055

                      1                      2                      3
                      A                      A                      A
 Frequencies --     24.9767                28.9367                40.5481
 Red. masses --      3.8699                 2.5759                 2.2000
 Frc consts  --      0.0014                 0.0013                 0.0021
 IR Inten    --      0.0729                 0.0153                 0.0418

                      4                      5                      6
                      A                      A                      A
 Frequencies --     56.0387                73.8840               101.6686
 Red. masses --      3.4890                 2.4929                 2.6202
 Frc consts  --      0.0065                 0.0080                 0.0160
 IR Inten    --      0.2855                 0.4151                 0.0994

                      7                      8                      9
                      A                      A                      A
 Frequencies --    131.6886               139.9362               179.6678
 Red. masses --      3.1862                 3.1490                 2.6236
 Frc consts  --      0.0326                 0.0363                 0.0499
 IR Inten    --      1.3210                 0.3501                 1.8994

                     10                     11                     12
                      A                      A                      A
 Frequencies --    205.1358               238.0634               244.9248
 Red. masses --      2.9960                 1.6626                 1.6004
 Frc consts  --      0.0743                 0.0555                 0.0566
 IR Inten    --      1.8048                 0.8680                 2.4152

                     13                     14                     15
                      A                      A                      A
 Frequencies --    253.8767               280.7477               297.3805
 Red. masses --      1.3075                 2.6525                 2.7773
 Frc consts  --      0.0497                 0.1232                 0.1447
 IR Inten    --      0.0968                 1.7852                 0.6449

                     16                     17                     18
                      A                      A                      A
 Frequencies --    314.2723               325.6907               337.2405
 Red. masses --      2.2103                 2.5238                 1.8443
 Frc consts  --      0.1286                 0.1577                 0.1236
 IR Inten    --     24.7402                 4.7653                14.0980

                     19                     20                     21
                      A                      A                      A
 Frequencies --    339.0720               352.6455               375.1354
 Red. masses --      1.3520                 1.5947                 2.4382
 Frc consts  --      0.0916                 0.1168                 0.2022
 IR Inten    --      4.6493               100.2951                 1.3591

                     22                     23                     24
                      A                      A                      A
 Frequencies --    386.6372               429.1828               466.7068
 Red. masses --      2.5459                 3.5834                 3.1159
 Frc consts  --      0.2242                 0.3889                 0.3999
 IR Inten    --      2.6124                 0.7090                 4.5456

                     25                     26                     27
                      A                      A                      A
 Frequencies --    474.7425               506.2399               537.2997
 Red. masses --      3.5651                 3.6476                 3.7697
 Frc consts  --      0.4734                 0.5508                 0.6412
 IR Inten    --      1.7266                 6.9399                 1.7329

                     28                     29                     30
                      A                      A                      A
 Frequencies --    625.0404               628.4503               646.8896
 Red. masses --      4.3149                 3.0096                 3.1945
 Frc consts  --      0.9932                 0.7003                 0.7876
 IR Inten    --      1.9963                 7.2702                 1.5906

                     31                     32                     33
                      A                      A                      A
 Frequencies --    686.9614               724.5614               760.2844
 Red. masses --      3.8756                 2.0317                 1.8154
 Frc consts  --      1.0776                 0.6284                 0.6183
 IR Inten    --      4.1408                15.6156                 9.5401

                     34                     35                     36
                      A                      A                      A
 Frequencies --    765.4460               793.1379               801.2519
 Red. masses --      3.6191                 1.6248                 1.2308
 Frc consts  --      1.2493                 0.6022                 0.4655
 IR Inten    --      3.2601                14.8477                 2.3485

                     37                     38                     39
                      A                      A                      A
 Frequencies --    822.8712               865.9061               893.3143
 Red. masses --      1.9358                 1.9507                 1.8791
 Frc consts  --      0.7723                 0.8618                 0.8835
 IR Inten    --      5.3028                 8.1136                 7.0379

                     40                     41                     42
                      A                      A                      A
 Frequencies --    909.5373               923.5099               925.8718
 Red. masses --      1.4200                 2.4741                 2.6451
 Frc consts  --      0.6921                 1.2432                 1.3360
 IR Inten    --      1.3877                 1.9156                 2.3495

                     43                     44                     45
                      A                      A                      A
 Frequencies --    936.7484               947.9627               963.2189
 Red. masses --      1.4371                 1.6515                 1.9131
 Frc consts  --      0.7430                 0.8744                 1.0458
 IR Inten    --      3.3780                 3.9529                 9.9636

                     46                     47                     48
                      A                      A                      A
 Frequencies --    969.5461               984.6520               992.0284
 Red. masses --      1.2870                 2.0662                 1.5845
 Frc consts  --      0.7128                 1.1803                 0.9187
 IR Inten    --      0.0258                 2.6528                 2.0910

                     49                     50                     51
                      A                      A                      A
 Frequencies --   1002.2302              1023.2408              1036.7054
 Red. masses --      2.3233                 6.1883                 1.3732
 Frc consts  --      1.3750                 3.8175                 0.8696
 IR Inten    --      3.2389                 0.6541                 1.3071

                     52                     53                     54
                      A                      A                      A
 Frequencies --   1048.1371              1079.3857              1089.4011
 Red. masses --      2.2665                 3.1868                 1.9047
 Frc consts  --      1.4670                 2.1875                 1.3318
 IR Inten    --      5.5698                46.7994                 6.1128

                     55                     56                     57
                      A                      A                      A
 Frequencies --   1096.1771              1104.1996              1136.9681
 Red. masses --      1.8226                 1.9302                 1.6321
 Frc consts  --      1.2903                 1.3866                 1.2430
 IR Inten    --     13.6729                23.8629                 0.0533

                     58                     59                     60
                      A                      A                      A
 Frequencies --   1138.9648              1154.1326              1186.9753
 Red. masses --      1.6502                 3.1425                 1.8869
 Frc consts  --      1.2613                 2.4663                 1.5663
 IR Inten    --      6.2353                16.1144                 8.8396

                     61                     62                     63
                      A                      A                      A
 Frequencies --   1191.4957              1206.7733              1220.6460
 Red. masses --      1.9399                 1.1154                 1.8254
 Frc consts  --      1.6226                 0.9570                 1.6025
 IR Inten    --     34.8824                 0.3276                56.9907

                     64                     65                     66
                      A                      A                      A
 Frequencies --   1233.3921              1242.3190              1252.5236
 Red. masses --      1.3918                 1.6915                 1.3100
 Frc consts  --      1.2475                 1.5381                 1.2108
 IR Inten    --      3.9214                32.4512                 6.1562

                     67                     68                     69
                      A                      A                      A
 Frequencies --   1270.2929              1285.3589              1289.5860
 Red. masses --      2.4446                 1.3895                 1.3043
 Frc consts  --      2.3242                 1.3526                 1.2780
 IR Inten    --      1.0437                 0.8372                12.2640

                     70                     71                     72
                      A                      A                      A
 Frequencies --   1296.2246              1320.4615              1337.1464
 Red. masses --      1.8242                 1.7205                 1.4210
 Frc consts  --      1.8059                 1.7675                 1.4970
 IR Inten    --     35.6725                 5.4405                11.7019

                     73                     74                     75
                      A                      A                      A
 Frequencies --   1339.1357              1344.7327              1364.1885
 Red. masses --      1.3595                 1.2837                 2.2620
 Frc consts  --      1.4364                 1.3677                 2.4802
 IR Inten    --      7.5808                 3.6012                 3.5599

                     76                     77                     78
                      A                      A                      A
 Frequencies --   1374.8064              1381.5845              1391.9126
 Red. masses --      1.6316                 1.4237                 1.7288
 Frc consts  --      1.8170                 1.6011                 1.9734
 IR Inten    --      4.0313                 0.3088                17.9135

                     79                     80                     81
                      A                      A                      A
 Frequencies --   1410.8362              1412.4581              1424.4525
 Red. masses --      1.4152                 1.3504                 1.3001
 Frc consts  --      1.6596                 1.5874                 1.5542
 IR Inten    --      6.3975                10.0925                 5.7026

                     82                     83                     84
                      A                      A                      A
 Frequencies --   1434.6716              1446.2236              1491.9865
 Red. masses --      1.2223                 1.2552                 2.6305
 Frc consts  --      1.4823                 1.5468                 3.4500
 IR Inten    --      1.3941                18.8988                 5.2228

                     85                     86                     87
                      A                      A                      A
 Frequencies --   1515.4227              1515.6955              1517.9904
 Red. masses --      1.0586                 1.0777                 1.0758
 Frc consts  --      1.4323                 1.4587                 1.4606
 IR Inten    --      2.0410                 0.2689                 0.7467

                     88                     89                     90
                      A                      A                      A
 Frequencies --   1524.8254              1525.8907              1534.9068
 Red. masses --      1.0568                 1.0414                 1.0928
 Frc consts  --      1.4477                 1.4286                 1.5168
 IR Inten    --      6.4228                 7.4817                 2.4312

                     91                     92                     93
                      A                      A                      A
 Frequencies --   1535.6337              1536.8615              1540.0957
 Red. masses --      1.0577                 1.4533                 1.3746
 Frc consts  --      1.4696                 2.0224                 1.9210
 IR Inten    --      3.3475                 5.7436                 6.4980

                     94                     95                     96
                      A                      A                      A
 Frequencies --   1543.0942              1546.8087              1561.7586
 Red. masses --      1.1403                 1.0782                 1.1044
 Frc consts  --      1.5997                 1.5199                 1.5871
 IR Inten    --      3.7508                 6.6993                 0.5009

                     97                     98                     99
                      A                      A                      A
 Frequencies --   1650.7809              1667.1505              2929.5527
 Red. masses --      5.6083                 5.8060                 1.0743
 Frc consts  --      9.0045                 9.5078                 5.4323
 IR Inten    --      3.0153                 8.7879                60.5492

                    100                    101                    102
                      A                      A                      A
 Frequencies --   2949.8285              3005.7722              3044.8521
 Red. masses --      1.0732                 1.0829                 1.0594
 Frc consts  --      5.5023                 5.7643                 5.7870
 IR Inten    --     91.7734                48.2863                29.0640

                    103                    104                    105
                      A                      A                      A
 Frequencies --   3047.1832              3057.3035              3069.3034
 Red. masses --      1.0349                 1.0381                 1.0606
 Frc consts  --      5.6616                 5.7168                 5.8868
 IR Inten    --     37.9488                28.9632                22.1196

                    106                    107                    108
                      A                      A                      A
 Frequencies --   3070.5852              3079.2647              3080.1265
 Red. masses --      1.0367                 1.1037                 1.0630
 Frc consts  --      5.7588                 6.1661                 5.9416
 IR Inten    --     10.6802                 8.5323                53.7584

                    109                    110                    111
                      A                      A                      A
 Frequencies --   3097.4049              3105.3628              3117.1135
 Red. masses --      1.0855                 1.1033                 1.1027
 Frc consts  --      6.1356                 6.2684                 6.3125
 IR Inten    --     41.9744                 9.5011                50.5885

                    112                    113                    114
                      A                      A                      A
 Frequencies --   3117.9862              3118.6552              3121.2936
 Red. masses --      1.0937                 1.1009                 1.1035
 Frc consts  --      6.2648                 6.3084                 6.3340
 IR Inten    --     34.7878                15.0501                35.2800

                    115                    116                    117
                      A                      A                      A
 Frequencies --   3129.2917              3138.6674              3152.9110
 Red. masses --      1.1037                 1.1014                 1.1012
 Frc consts  --      6.3676                 6.3929                 6.4498
 IR Inten    --     71.0175                30.9594                 7.6152

                    118                    119                    120
                      A                      A                      A
 Frequencies --   3156.9333              3173.4998              3191.3969
 Red. masses --      1.1006                 1.0868                 1.0900
 Frc consts  --      6.4627                 6.4489                 6.5409
 IR Inten    --     26.1517                 9.7075                23.6811

                    121                    122                    123
                      A                      A                      A
 Frequencies --   3193.3999              3218.9609              3745.9200
 Red. masses --      1.0910                 1.0928                 1.0662
 Frc consts  --      6.5554                 6.6715                 8.8148
 IR Inten    --     11.7701                18.5959                13.1295

 - Thermochemistry -
 -------------------
 Temperature   298.150 Kelvin.  Pressure   1.00000 Atm.
 Atom     1 has atomic number  6 and mass  12.00000

 Molecular mass:   247.19361 amu.
 Principal axes and moments of inertia in atomic units:
                           1         2         3
     Eigenvalues --  2485.517827011.482988198.16939
           X            0.99998   0.00519   0.00210
           Y           -0.00522   0.99991   0.01231
           Z           -0.00204  -0.01232   0.99992
 This molecule is an asymmetric top.
 Rotational symmetry number  1.
 Warning -- assumption of classical behavior for rotation
           may cause significant error
 Rotational temperatures (Kelvin)      0.03485     0.01235     0.01057
 Rotational constants (GHZ):           0.72610     0.25740     0.22014
 Zero-point vibrational energy    1014425.7 (Joules/Mol)
                                  242.45357 (Kcal/Mol)
 Warning -- explicit consideration of  27 degrees of freedom as
           vibrations may cause significant error
 Vibrational temperatures:     35.94    41.63    58.34    80.63   106.30
          (Kelvin)            146.28   189.47   201.34   258.50   295.14
                              342.52   352.39   365.27   403.93   427.86
                              452.17   468.60   485.21   487.85   507.38
                              539.74   556.28   617.50   671.49   683.05
                              728.37   773.05   899.29   904.20   930.73
                              988.38  1042.48  1093.88  1101.31  1141.15
                             1152.82  1183.93  1245.85  1285.28  1308.62
                             1328.72  1332.12  1347.77  1363.91  1385.86
                             1394.96  1416.69  1427.31  1441.99  1472.22
                             1491.59  1508.04  1553.00  1567.41  1577.15
                             1588.70  1635.84  1638.72  1660.54  1707.79
                             1714.30  1736.28  1756.24  1774.58  1787.42
                             1802.10  1827.67  1849.34  1855.43  1864.98
                             1899.85  1923.86  1926.72  1934.77  1962.76
                             1978.04  1987.79  2002.65  2029.88  2032.21
                             2049.47  2064.17  2080.79  2146.64  2180.36
                             2180.75  2184.05  2193.88  2195.42  2208.39
                             2209.43  2211.20  2215.85  2220.17  2225.51
                             2247.02  2375.11  2398.66  4214.97  4244.15
                             4324.64  4380.86  4384.22  4398.78  4416.04
                             4417.89  4430.38  4431.62  4456.47  4467.92
                             4484.83  4486.09  4487.05  4490.85  4502.35
                             4515.84  4536.34  4542.12  4565.96  4591.71
                             4594.59  4631.37  5389.54

 Zero-point correction=                           0.386374 (Hartree/Particle)
 Thermal correction to Energy=                    0.404948
 Thermal correction to Enthalpy=                  0.405893
 Thermal correction to Gibbs Free Energy=         0.338850
 Sum of electronic and zero-point Energies=           -754.420255
 Sum of electronic and thermal Energies=              -754.401681
 Sum of electronic and thermal Enthalpies=            -754.400737
 Sum of electronic and thermal Free Energies=         -754.467780

                     E (Thermal)             CV                S
                      KCal/Mol        Cal/Mol-Kelvin    Cal/Mol-Kelvin
 Total                  254.109             72.072            141.103
 Electronic               0.000              0.000              0.000
 Translational            0.889              2.981             42.416
 Rotational               0.889              2.981             33.324
 Vibrational            252.331             66.111             65.364
 Vibration     1          0.593              1.985              6.193
 Vibration     2          0.593              1.984              5.901
 Vibration     3          0.594              1.981              5.232
 Vibration     4          0.596              1.975              4.592
 Vibration     5          0.599              1.966              4.047
 Vibration     6          0.604              1.948              3.422
 Vibration     7          0.612              1.922              2.921
 Vibration     8          0.615              1.913              2.805
 Vibration     9          0.629              1.867              2.332
 Vibration    10          0.640              1.833              2.087
 Vibration    11          0.656              1.782              1.817
 Vibration    12          0.660              1.771              1.767
 Vibration    13          0.665              1.756              1.704
 Vibration    14          0.680              1.709              1.529
 Vibration    15          0.691              1.679              1.432
 Vibration    16          0.702              1.646              1.340
 Vibration    17          0.710              1.624              1.281
 Vibration    18          0.718              1.601              1.225
 Vibration    19          0.719              1.597              1.217
 Vibration    20          0.729              1.570              1.154
 Vibration    21          0.746              1.523              1.059
 Vibration    22          0.755              1.499              1.013
 Vibration    23          0.791              1.407              0.861
 Vibration    24          0.824              1.324              0.747
 Vibration    25          0.831              1.306              0.724
 Vibration    26          0.861              1.236              0.643
 Vibration    27          0.892              1.168              0.571

 Optimization completed.
    -- Stationary point found.
 Normal termination of Gaussian 16 at Fri Dec 11 20:57:43 2020.

 ----------------------------------------------------------------------
 # B3LYP/6-311++G(d,p) empiricaldispersion=gd3bj scf=xqc pop=npa geom=c
 heck
 ----------------------------------------------------------------------

 --------------------------------------
 CID_81571169_JID_8375_Energie_neutraal
 --------------------------------------
 Structure from the checkpoint file:  "JID_8375.chk"
 Charge =  0 Multiplicity = 1

 SCF Done:  E(RB3LYP) =  -755.016303531     A.U. after   14 cycles
 Normal termination of Gaussian 16 at Fri Dec 11 21:06:40 2020.

 ----------------------------------------------------------------------
 # B3LYP/6-311++G(d,p) empiricaldispersion=gd3bj scf=xqc pop=npa geom=c
 heck
 ----------------------------------------------------------------------

 ------------------------------------
 CID_81571169_JID_8375_Energie_kation
 ------------------------------------
 Structure from the checkpoint file:  "JID_8375.chk"
 Charge =  1 Multiplicity = 2

 SCF Done:  E(UB3LYP) =  -754.742474658     A.U. after   24 cycles
 Normal termination of Gaussian 16 at Fri Dec 11 21:28:06 2020.
 Gaussian 16:  ES64L-G16RevA.03 25-Dec-2016

 ----------------------------------------------------------------------
 # B3LYP/6-311++G(d,p) empiricaldispersion=gd3bj scf=xqc pop=npa geom=c
 heck
 ----------------------------------------------------------------------

 -----------------------------------
 CID_81571169_JID_8375_Energie_anion
 -----------------------------------
 Structure from the checkpoint file:  "JID_8375.chk"
 Charge = -1 Multiplicity = 2

                         Standard orientation:
 ---------------------------------------------------------------------
 Center     Atomic      Atomic             Coordinates (Angstroms)
 Number     Number       Type             X           Y           Z
 ---------------------------------------------------------------------
      1          6           0        5.325487    0.317179   -0.047206
      2          6           0        4.281651   -0.121444    0.992844
      3          6           0        2.976081   -0.535413    0.352806
      4          6           0        2.002809    0.422650    0.044059
      5          6           0        0.805127    0.075517   -0.587203
      6          6           0        0.585538   -1.265300   -0.925077
      7          6           0        1.543497   -2.230283   -0.624770
      8          6           0        2.731828   -1.868980    0.011990
      9          6           0       -0.243828    1.128522   -0.890658
     10          6           0       -1.385055    1.209218    0.175568
     11          6           0       -0.764898    1.455171    1.557965
     12          6           0       -2.315315    2.388768   -0.175210
     13          7           0       -2.081871   -0.090766    0.163462
     14          6           0       -2.947695   -0.397378   -0.975447
     15          6           0       -3.480443   -1.790513   -0.623573
     16          6           0       -3.593337   -1.756784    0.922340
     17          6           0       -2.877281   -0.451612    1.338576
     18          8           0        0.322568    2.436695   -0.982423
     19          1           0        5.541741   -0.497314   -0.747433
     20          1           0        6.264148    0.614544    0.434072
     21          1           0        4.957078    1.167638   -0.631861
     22          1           0        4.684406   -0.954833    1.581527
     23          1           0        4.103189    0.702211    1.695330
     24          1           0        2.173461    1.462021    0.310497
     25          1           0       -0.337502   -1.551031   -1.417480
     26          1           0        1.364172   -3.269752   -0.886580
     27          1           0        3.476356   -2.626927    0.244987
     28          1           0       -0.716478    0.876851   -1.851494
     29          1           0       -0.085554    2.308888    1.498984
     30          1           0       -1.535900    1.686820    2.298978
     31          1           0       -0.199260    0.584117    1.898477
     32          1           0       -2.654934    2.340685   -1.215045
     33          1           0       -3.198699    2.379150    0.473409
     34          1           0       -1.796686    3.339867   -0.040274
     35          1           0       -2.393315   -0.381654   -1.918571
     36          1           0       -3.788180    0.314348   -1.074879
     37          1           0       -4.431717   -2.006892   -1.118991
     38          1           0       -2.759303   -2.552686   -0.935228
     39          1           0       -4.634802   -1.753211    1.257680
     40          1           0       -3.110025   -2.630219    1.368922
     41          1           0       -3.626209    0.323196    1.591484
     42          1           0       -2.238611   -0.588300    2.213624
     43          1           0        1.070177    2.378380   -1.597008
 ---------------------------------------------------------------------

 SCF Done:  E(UB3LYP) =  -755.003158594     A.U. after   33 cycles
 SCF Done:  E(UB3LYP) =  -755.003158594     a.u. after    1 cycles

 The electronic state is 2-A.
 Alpha  occ. eigenvalues --  -19.03153 -14.20618 -10.12925 -10.11776 -10.09696
 Alpha  occ. eigenvalues --  -10.09611 -10.08329 -10.08191 -10.07861 -10.07726
 Alpha  occ. eigenvalues --  -10.07568 -10.07465 -10.07445 -10.07304 -10.07156
 Alpha  occ. eigenvalues --  -10.06817 -10.06028 -10.06016  -0.93621  -0.84158
 Alpha  occ. eigenvalues --   -0.76453  -0.71986  -0.69402  -0.66127  -0.64509
 Alpha  occ. eigenvalues --   -0.63582  -0.62892  -0.59119  -0.58247  -0.54003
 Alpha  occ. eigenvalues --   -0.51920  -0.50176  -0.48695  -0.47971  -0.44830
 Alpha  occ. eigenvalues --   -0.43313  -0.40690  -0.39794  -0.38431  -0.37472
 Alpha  occ. eigenvalues --   -0.36385  -0.35862  -0.34770  -0.34359  -0.33449
 Alpha  occ. eigenvalues --   -0.32605  -0.31963  -0.31500  -0.30142  -0.29622
 Alpha  occ. eigenvalues --   -0.28717  -0.28608  -0.28001  -0.27803  -0.26675
 Alpha  occ. eigenvalues --   -0.26228  -0.25346  -0.25249  -0.25101  -0.24797
 Alpha  occ. eigenvalues --   -0.23704  -0.23675  -0.23080  -0.22420  -0.19045
 Alpha  occ. eigenvalues --   -0.15450  -0.14575  -0.11919   0.04052
 Alpha virt. eigenvalues --    0.05656   0.06599   0.06838   0.07364   0.07737
 Alpha virt. eigenvalues --    0.08040   0.08162   0.08578   0.09009   0.09306
 Alpha virt. eigenvalues --    0.09590   0.10044   0.10365   0.10830   0.11352

  Beta  occ. eigenvalues --  -19.03138 -14.20618 -10.12913 -10.11774 -10.09682
  Beta  occ. eigenvalues --  -10.09594 -10.08323 -10.08193 -10.07848 -10.07717
  Beta  occ. eigenvalues --  -10.07555 -10.07455 -10.07430 -10.07290 -10.07133
  Beta  occ. eigenvalues --  -10.06784 -10.06014 -10.06003  -0.93588  -0.84147
  Beta  occ. eigenvalues --   -0.76429  -0.71966  -0.69371  -0.66097  -0.64486
  Beta  occ. eigenvalues --   -0.63549  -0.62853  -0.59093  -0.58211  -0.53943
  Beta  occ. eigenvalues --   -0.51887  -0.50144  -0.48650  -0.47932  -0.44795
  Beta  occ. eigenvalues --   -0.43278  -0.40655  -0.39777  -0.38400  -0.37443
  Beta  occ. eigenvalues --   -0.36352  -0.35843  -0.34738  -0.34334  -0.33420
  Beta  occ. eigenvalues --   -0.32579  -0.31940  -0.31475  -0.30105  -0.29600
  Beta  occ. eigenvalues --   -0.28695  -0.28584  -0.27976  -0.27770  -0.26652
  Beta  occ. eigenvalues --   -0.26197  -0.25319  -0.25216  -0.25076  -0.24768
  Beta  occ. eigenvalues --   -0.23685  -0.23650  -0.23057  -0.22400  -0.19022
  Beta  occ. eigenvalues --   -0.15392  -0.14535  -0.11903
  Beta virt. eigenvalues --    0.05897   0.06447   0.07059   0.07367   0.07691
  Beta virt. eigenvalues --    0.08035   0.08208   0.08354   0.08790   0.09301
  Beta virt. eigenvalues --    0.09591   0.09734   0.10250   0.10625   0.11135

 Mulliken charges and spin densities:
               1          2
     1  C    0.814740  -1.471041
     2  C    0.060585  -0.421533
     3  C   -0.249237   0.869867
     4  C   -0.492236  -0.213545
     5  C    0.799937   0.010556
     6  C    0.338644  -0.358767
     7  C    0.719823  -1.139063
     8  C   -1.125869   0.583095
     9  C    0.199441  -0.285809
    10  C   -1.071012   0.762684
    11  C   -0.902595   0.084850
    12  C    0.734233  -1.275657
    13  N    0.419939   0.048889
    14  C   -0.325942   0.192655
    15  C    0.566067  -0.994555
    16  C   -0.071247  -0.287780
    17  C    0.140434  -0.346202
    18  O   -0.214828   0.014559
    19  H   -0.058048   0.199016
    20  H   -0.264855   0.391810
    21  H   -0.215075   0.356837
    22  H   -0.233716   0.392313
    23  H   -0.153761   0.291904
    24  H    0.321133  -0.115962
    25  H    0.036801   0.071867
    26  H   -0.229652   0.406194
    27  H   -0.184283   0.336612
    28  H   -0.192670   0.416368
    29  H   -0.021360   0.199089
    30  H   -0.020176   0.187878
    31  H    0.190660  -0.043427
    32  H   -0.075860   0.243526
    33  H   -0.061789   0.205019
    34  H    0.167356   0.008570
    35  H   -0.274416   0.393676
    36  H    0.027946   0.101522
    37  H   -0.289623   0.438393
    38  H    0.170779  -0.045030
    39  H   -0.023028   0.159178
    40  H   -0.022391   0.163608
    41  H   -0.029275   0.145251
    42  H    0.063686   0.079958
    43  H    0.030740   0.242626
 Sum of Mulliken charges =  -1.00000   1.00000

 Dipole moment (field-independent basis, Debye):
    X=             -2.7385    Y=             -0.0888    Z=              1.0041  Tot=              2.9181
 Quadrupole moment (field-independent basis, Debye-Ang):
   XX=           -214.3961   YY=           -157.2601   ZZ=           -149.0209
   XY=             -1.8752   XZ=             -5.1080   YZ=              1.3481

 Summary of Natural Population Analysis:

                                       Natural Population
                Natural  -----------------------------------------------
    Atom  No    Charge         Core      Valence    Rydberg      Total
 -----------------------------------------------------------------------
      C    1   -0.27783      0.99966     2.27407    0.00410     3.27783
      C    2   -0.19688      0.99961     2.18814    0.00913     3.19688
      C    3   -0.01230      0.99951     2.00277    0.01002     3.01230
      C    4   -0.10368      0.99945     2.09443    0.00979     3.10368
      C    5   -0.02610      0.99949     2.01477    0.01184     3.02610
      C    6   -0.09324      0.99950     2.08369    0.01005     3.09324
      C    7   -0.09694      0.99956     2.08794    0.00944     3.09694
      C    8   -0.10441      0.99950     2.09535    0.00956     3.10441
      C    9    0.06103      0.99945     1.92369    0.01584     2.93897
      C   10    0.07559      0.99955     1.90991    0.01494     2.92441
      C   11   -0.29569      0.99961     2.29030    0.00577     3.29569
      C   12   -0.29698      0.99961     2.29132    0.00605     3.29698
      N   13   -0.29480      0.99968     2.78090    0.01422     3.79480
      C   14   -0.08704      0.99962     2.07598    0.01145     3.08704
      C   15   -0.19208      0.99963     2.18450    0.00795     3.19208
      C   16   -0.19186      0.99964     2.18543    0.00680     3.19186
      C   17   -0.08292      0.99963     2.07262    0.01068     3.08292
      O   18   -0.37374      0.99989     3.36777    0.00607     4.37374
      H   19    0.09679      0.00000     0.40187    0.00134     0.40321
      H   20    0.09742      0.00000     0.40107    0.00151     0.40258
      H   21    0.09763      0.00000     0.40099    0.00139     0.40237
      H   22    0.09870      0.00000     0.40000    0.00130     0.40130
      H   23    0.09922      0.00000     0.39953    0.00125     0.40078
      H   24    0.10518      0.00000     0.39325    0.00157     0.39482
      H   25    0.10325      0.00000     0.39477    0.00198     0.39675
      H   26    0.09913      0.00000     0.39991    0.00096     0.40087
      H   27    0.09900      0.00000     0.39995    0.00105     0.40100
      H   28    0.08674      0.00000     0.41090    0.00236     0.41326
      H   29    0.10958      0.00000     0.38934    0.00107     0.39042
      H   30    0.10000      0.00000     0.39915    0.00085     0.40000
      H   31    0.10763      0.00000     0.39127    0.00110     0.39237
      H   32    0.10118      0.00000     0.39789    0.00093     0.39882
      H   33    0.09883      0.00000     0.40019    0.00098     0.40117
      H   34    0.10946      0.00000     0.38947    0.00108     0.39054
      H   35    0.09719      0.00000     0.40123    0.00158     0.40281
      H   36    0.08265      0.00000     0.41575    0.00160     0.41735
      H   37    0.09830      0.00000     0.40059    0.00111     0.40170
      H   38    0.09744      0.00000     0.40107    0.00150     0.40256
      H   39    0.09652      0.00000     0.40228    0.00120     0.40348
      H   40    0.09839      0.00000     0.40047    0.00113     0.40161
      H   41    0.07872      0.00000     0.41979    0.00149     0.42128
      H   42    0.09843      0.00000     0.40033    0.00124     0.40157
      H   43    0.23251      0.00000     0.26440    0.00309     0.26749
 =======================================================================
   * Total *   -0.00000     17.99259    49.79902    0.20838    68.00000

 Normal termination of Gaussian 16 at Fri Dec 11 21:57:10 2020.
