 Gaussian 16, Revision A.03,

 -----------------------------------------------------------
 # opt freq B3LYP/6-31G(d) empiricaldispersion=gd3bj scf=xqc
 -----------------------------------------------------------

 ------------------------------
 CID_61524252_JID_9231_neutraal
 ------------------------------
 Symbolic Z-matrix:
 Charge =  0 Multiplicity = 1

 SCF Done:  E(RB3LYP) =  -1217.09686785     A.U. after   14 cycles
 SCF Done:  E(RB3LYP) =  -1217.08367673     A.U. after   14 cycles
 SCF Done:  E(RB3LYP) =  -1217.10273199     A.U. after   12 cycles
 SCF Done:  E(RB3LYP) =  -1217.10358128     A.U. after   12 cycles
 SCF Done:  E(RB3LYP) =  -1217.10381688     A.U. after   12 cycles
 SCF Done:  E(RB3LYP) =  -1217.10406835     A.U. after   12 cycles
 SCF Done:  E(RB3LYP) =  -1217.10416679     A.U. after   11 cycles
 SCF Done:  E(RB3LYP) =  -1217.10423455     A.U. after   11 cycles
 SCF Done:  E(RB3LYP) =  -1217.10427907     A.U. after   11 cycles
 SCF Done:  E(RB3LYP) =  -1217.10438734     A.U. after   12 cycles
 SCF Done:  E(RB3LYP) =  -1217.10612830     A.U. after   10 cycles
 SCF Done:  E(RB3LYP) =  -1217.10612989     A.U. after    9 cycles
 SCF Done:  E(RB3LYP) =  -1217.10613000     A.U. after    7 cycles
 SCF Done:  E(RB3LYP) =  -1217.10613005     A.U. after    7 cycles
 SCF Done:  E(RB3LYP) =  -1217.10613009     A.U. after    7 cycles
 Optimization completed.
    -- Stationary point found.
 Normal termination of Gaussian 16 at Sat Dec 12 09:44:03 2020.

 --------------------------------------------------------------------
 #N Geom=AllCheck Guess=TCheck SCRF=Check GenChk RB3LYP/6-31G(d) Freq
 --------------------------------------------------------------------

 Structure from the checkpoint file:  "JID_9231.chk"
 ------------------------------
 CID_61524252_JID_9231_neutraal
 ------------------------------
 Charge =  0 Multiplicity = 1

 SCF Done:  E(RB3LYP) =  -1217.10613009     A.U. after    1 cycles

  Exact polarizability: 214.768   9.534 177.291  -9.982  -4.318 133.104
 Approx polarizability: 294.502   6.804 253.524 -20.488  -8.181 223.531

                      1                      2                      3
                      A                      A                      A
 Frequencies --     25.9515                33.5639                42.8493
 Red. masses --      4.7222                 5.3653                 5.6675
 Frc consts  --      0.0019                 0.0036                 0.0061
 IR Inten    --      1.1240                 2.3518                 1.4353

                      4                      5                      6
                      A                      A                      A
 Frequencies --     61.8143                72.8628                77.9687
 Red. masses --      3.3091                 5.4925                 4.0702
 Frc consts  --      0.0074                 0.0172                 0.0146
 IR Inten    --      0.9619                 0.7697                 0.9937

                      7                      8                      9
                      A                      A                      A
 Frequencies --     95.0007               134.0819               163.7964
 Red. masses --      3.4536                 4.3803                 2.8376
 Frc consts  --      0.0184                 0.0464                 0.0449
 IR Inten    --      3.5942                 1.0325                 1.1854

                     10                     11                     12
                      A                      A                      A
 Frequencies --    191.2807               195.0040               210.0144
 Red. masses --      3.5451                 4.1071                 2.8039
 Frc consts  --      0.0764                 0.0920                 0.0729
 IR Inten    --      1.9367                 0.0690                 0.3920

                     13                     14                     15
                      A                      A                      A
 Frequencies --    214.3784               264.1353               271.3874
 Red. masses --      2.5038                 3.5417                 2.4908
 Frc consts  --      0.0678                 0.1456                 0.1081
 IR Inten    --      0.0229                12.8901                 0.8703

                     16                     17                     18
                      A                      A                      A
 Frequencies --    295.4423               301.3004               334.0697
 Red. masses --      2.4382                 2.5513                 1.9837
 Frc consts  --      0.1254                 0.1365                 0.1304
 IR Inten    --      8.5140                 2.4372                34.6572

                     19                     20                     21
                      A                      A                      A
 Frequencies --    336.6751               343.7999               358.9305
 Red. masses --      1.8725                 2.4713                 4.0068
 Frc consts  --      0.1251                 0.1721                 0.3041
 IR Inten    --     40.0156                13.7595                 3.9684

                     22                     23                     24
                      A                      A                      A
 Frequencies --    383.3638               392.9398               445.4619
 Red. masses --      1.2557                 4.0786                 2.3852
 Frc consts  --      0.1087                 0.3710                 0.2789
 IR Inten    --     65.9155                 4.0029                 3.5089

                     25                     26                     27
                      A                      A                      A
 Frequencies --    465.3724               501.7515               511.9297
 Red. masses --      2.6291                 4.4993                 4.1802
 Frc consts  --      0.3355                 0.6674                 0.6455
 IR Inten    --      2.9701                 1.5133                 4.5669

                     28                     29                     30
                      A                      A                      A
 Frequencies --    538.1123               600.8937               620.2895
 Red. masses --      1.9594                 3.2423                 4.3067
 Frc consts  --      0.3343                 0.6898                 0.9763
 IR Inten    --      0.9541                51.8997                24.9348

                     31                     32                     33
                      A                      A                      A
 Frequencies --    659.2350               676.6289               692.8252
 Red. masses --      3.7350                 3.0152                 5.5456
 Frc consts  --      0.9564                 0.8133                 1.5684
 IR Inten    --      0.3141                 5.7284                 0.9512

                     34                     35                     36
                      A                      A                      A
 Frequencies --    709.0517               711.5798               737.1212
 Red. masses --      5.8476                 3.3225                 1.6998
 Frc consts  --      1.7321                 0.9912                 0.5442
 IR Inten    --      4.5780                 1.3869               248.1876

                     37                     38                     39
                      A                      A                      A
 Frequencies --    760.6985               819.1999               829.1912
 Red. masses --      1.3188                 1.6087                 2.8716
 Frc consts  --      0.4496                 0.6361                 1.1633
 IR Inten    --     13.0281                 4.9844                 2.6960

                     40                     41                     42
                      A                      A                      A
 Frequencies --    838.9560               875.3526               906.9930
 Red. masses --      1.8458                 3.0004                 2.1954
 Frc consts  --      0.7654                 1.3545                 1.0641
 IR Inten    --      2.7856                 4.6710                 1.0678

                     43                     44                     45
                      A                      A                      A
 Frequencies --    912.1810               941.1975               943.5056
 Red. masses --      2.4136                 2.0652                 2.0446
 Frc consts  --      1.1833                 1.0779                 1.0724
 IR Inten    --      1.4145                 4.9311                 2.5136

                     46                     47                     48
                      A                      A                      A
 Frequencies --    977.3286               981.3644              1006.5780
 Red. masses --      4.0432                 1.8351                 1.8327
 Frc consts  --      2.2754                 1.0413                 1.0940
 IR Inten    --     85.4141                 1.3017                 0.2348

                     49                     50                     51
                      A                      A                      A
 Frequencies --   1033.8456              1051.1668              1056.1126
 Red. masses --      4.1083                 2.6008                 1.6690
 Frc consts  --      2.5872                 1.6932                 1.0968
 IR Inten    --      4.6127                 4.0363                 1.5836

                     52                     53                     54
                      A                      A                      A
 Frequencies --   1061.6415              1091.2036              1101.5279
 Red. masses --      1.9904                 7.4066                 2.6121
 Frc consts  --      1.3217                 5.1961                 1.8674
 IR Inten    --      0.4505                 3.1014                 0.9634

                     55                     56                     57
                      A                      A                      A
 Frequencies --   1115.2407              1135.3129              1154.0570
 Red. masses --      1.9187                 1.9372                 1.2861
 Frc consts  --      1.4060                 1.4711                 1.0092
 IR Inten    --      0.6066                 0.6170                13.9431

                     58                     59                     60
                      A                      A                      A
 Frequencies --   1179.2731              1195.6615              1196.6963
 Red. masses --      1.2025                 1.3521                 1.4772
 Frc consts  --      0.9853                 1.1389                 1.2464
 IR Inten    --      2.0119                16.1140                 0.6912

                     61                     62                     63
                      A                      A                      A
 Frequencies --   1211.1629              1255.5353              1263.1585
 Red. masses --      1.6404                 1.6467                 1.4582
 Frc consts  --      1.4177                 1.5294                 1.3708
 IR Inten    --      8.4815                 7.1152                13.5729

                     64                     65                     66
                      A                      A                      A
 Frequencies --   1280.0770              1285.6164              1303.4265
 Red. masses --      1.6826                 1.7178                 1.3646
 Frc consts  --      1.6244                 1.6728                 1.3659
 IR Inten    --      1.7794                14.0951                31.2834

                     67                     68                     69
                      A                      A                      A
 Frequencies --   1320.2815              1330.7743              1348.5457
 Red. masses --      1.1870                 1.2701                 1.2404
 Frc consts  --      1.2191                 1.3252                 1.3290
 IR Inten    --      8.5717                 5.9655                17.6417

                     70                     71                     72
                      A                      A                      A
 Frequencies --   1348.9502              1365.5908              1368.7120
 Red. masses --      1.5893                 1.4566                 1.3995
 Frc consts  --      1.7039                 1.6005                 1.5448
 IR Inten    --      4.2676                23.6716                86.9260

                     73                     74                     75
                      A                      A                      A
 Frequencies --   1390.5491              1403.4627              1404.8156
 Red. masses --      1.4775                 1.4821                 1.4358
 Frc consts  --      1.6833                 1.7200                 1.6695
 IR Inten    --     12.9437                15.5337                 9.3730

                     76                     77                     78
                      A                      A                      A
 Frequencies --   1411.1573              1414.7674              1419.2506
 Red. masses --      1.4492                 1.4576                 1.6714
 Frc consts  --      1.7003                 1.7190                 1.9836
 IR Inten    --      5.9462                 8.1650                 8.9190

                     79                     80                     81
                      A                      A                      A
 Frequencies --   1447.0909              1448.4829              1479.4299
 Red. masses --      7.3603                 2.1445                 2.9184
 Frc consts  --      9.0811                 2.6510                 3.7634
 IR Inten    --      3.2127                 8.1744                54.2890

                     82                     83                     84
                      A                      A                      A
 Frequencies --   1510.6587              1512.4385              1513.9482
 Red. masses --      1.1050                 1.1049                 1.0770
 Frc consts  --      1.4857                 1.4891                 1.4545
 IR Inten    --      0.8636                 4.9494                 1.7605

                     85                     86                     87
                      A                      A                      A
 Frequencies --   1515.9581              1517.1218              1526.5293
 Red. masses --      1.1046                 1.0963                 1.0950
 Frc consts  --      1.4956                 1.4867                 1.5034
 IR Inten    --      1.9566                 4.8089                 9.1729

                     88                     89                     90
                      A                      A                      A
 Frequencies --   1528.0499              1532.3697              1547.1344
 Red. masses --      1.1026                 1.1577                 1.6646
 Frc consts  --      1.5169                 1.6017                 2.3476
 IR Inten    --      7.4532                 5.7299                 9.3750

                     91                     92                     93
                      A                      A                      A
 Frequencies --   1556.2228              1670.5704              1742.5504
 Red. masses --      2.1582                 1.1827                 6.0898
 Frc consts  --      3.0795                 1.9447                10.8950
 IR Inten    --     45.0953                60.7328                83.8152

                     94                     95                     96
                      A                      A                      A
 Frequencies --   3029.6882              3032.8353              3036.5082
 Red. masses --      1.0719                 1.0637                 1.0716
 Frc consts  --      5.7968                 5.7646                 5.8217
 IR Inten    --     19.6597                21.1424                11.7549

                     97                     98                     99
                      A                      A                      A
 Frequencies --   3040.7271              3047.3955              3049.5575
 Red. masses --      1.0605                 1.0696                 1.0671
 Frc consts  --      5.7771                 5.8525                 5.8467
 IR Inten    --     28.7525                42.6548                31.9366

                    100                    101                    102
                      A                      A                      A
 Frequencies --   3058.2983              3061.0063              3072.2957
 Red. masses --      1.0657                 1.0687                 1.0936
 Frc consts  --      5.8729                 5.9000                 6.0819
 IR Inten    --      9.2802                18.8188                11.8534

                    103                    104                    105
                      A                      A                      A
 Frequencies --   3075.3078              3088.3772              3092.4725
 Red. masses --      1.0958                 1.0634                 1.1022
 Frc consts  --      6.1061                 5.9758                 6.2104
 IR Inten    --     28.8980                24.6160                53.2398

                    106                    107                    108
                      A                      A                      A
 Frequencies --   3103.9461              3112.5047              3117.8320
 Red. masses --      1.1032                 1.0912                 1.0908
 Frc consts  --      6.2622                 6.2281                 6.2476
 IR Inten    --     45.0137                10.6900                12.2446

                    109                    110                    111
                      A                      A                      A
 Frequencies --   3133.4213              3139.9834              3151.7504
 Red. masses --      1.1049                 1.1000                 1.0919
 Frc consts  --      6.3916                 6.3897                 6.3907
 IR Inten    --     13.9353                18.9968                 3.2539

                    112                    113                    114
                      A                      A                      A
 Frequencies --   3528.4493              3633.3264              3780.4517
 Red. masses --      1.0472                 1.0982                 1.0677
 Frc consts  --      7.6816                 8.5414                 8.9907
 IR Inten    --     11.9106                10.2778                61.7721

 - Thermochemistry -
 -------------------
 Temperature   298.150 Kelvin.  Pressure   1.00000 Atm.
 Atom     1 has atomic number  6 and mass  12.00000

 Molecular mass:   283.14668 amu.
 Principal axes and moments of inertia in atomic units:
                           1         2         3
     Eigenvalues --  3737.018088138.77008**********
           X            0.99907   0.04308  -0.00161
           Y           -0.04310   0.99901  -0.01061
           Z            0.00115   0.01067   0.99994
 This molecule is an asymmetric top.
 Rotational symmetry number  1.
 Warning -- assumption of classical behavior for rotation
           may cause significant error
 Rotational temperatures (Kelvin)      0.02318     0.01064     0.00801
 Rotational constants (GHZ):           0.48294     0.22175     0.16681
 Zero-point vibrational energy     899565.9 (Joules/Mol)
                                  215.00141 (Kcal/Mol)
 Warning -- explicit consideration of  30 degrees of freedom as
           vibrations may cause significant error
 Vibrational temperatures:     37.34    48.29    61.65    88.94   104.83
          (Kelvin)            112.18   136.68   192.91   235.67   275.21
                              280.57   302.16   308.44   380.03   390.47
                              425.08   433.50   480.65   484.40   494.65
                              516.42   551.58   565.35   640.92   669.57
                              721.91   736.55   774.22   864.55   892.46
                              948.49   973.52   996.82  1020.17  1023.80
                             1060.55  1094.48  1178.65  1193.02  1207.07
                             1259.44  1304.96  1312.43  1354.17  1357.49
                             1406.16  1411.96  1448.24  1487.47  1512.39
                             1519.51  1527.47  1570.00  1584.85  1604.58
                             1633.46  1660.43  1696.71  1720.29  1721.78
                             1742.59  1806.44  1817.40  1841.75  1849.72
                             1875.34  1899.59  1914.69  1940.26  1940.84
                             1964.78  1969.27  2000.69  2019.27  2021.22
                             2030.34  2035.53  2041.99  2082.04  2084.04
                             2128.57  2173.50  2176.06  2178.23  2181.13
                             2182.80  2196.34  2198.52  2204.74  2225.98
                             2239.06  2403.58  2507.14  4359.05  4363.57
                             4368.86  4374.93  4384.52  4387.63  4400.21
                             4404.11  4420.35  4424.68  4443.49  4449.38
                             4465.89  4478.20  4485.86  4508.29  4517.74
                             4534.67  5076.65  5227.55  5439.23

 Zero-point correction=                           0.342627 (Hartree/Particle)
 Thermal correction to Energy=                    0.361940
 Thermal correction to Enthalpy=                  0.362885
 Thermal correction to Gibbs Free Energy=         0.293657
 Sum of electronic and zero-point Energies=          -1216.763504
 Sum of electronic and thermal Energies=             -1216.744190
 Sum of electronic and thermal Enthalpies=           -1216.743245
 Sum of electronic and thermal Free Energies=        -1216.812473

                     E (Thermal)             CV                S
                      KCal/Mol        Cal/Mol-Kelvin    Cal/Mol-Kelvin
 Total                  227.121             73.186            145.701
 Electronic               0.000              0.000              0.000
 Translational            0.889              2.981             42.820
 Rotational               0.889              2.981             34.153
 Vibrational            225.344             67.224             68.728
 Vibration     1          0.593              1.985              6.117
 Vibration     2          0.594              1.983              5.607
 Vibration     3          0.595              1.980              5.123
 Vibration     4          0.597              1.973              4.398
 Vibration     5          0.599              1.967              4.074
 Vibration     6          0.599              1.964              3.941
 Vibration     7          0.603              1.953              3.554
 Vibration     8          0.613              1.919              2.887
 Vibration     9          0.623              1.887              2.505
 Vibration    10          0.634              1.852              2.215
 Vibration    11          0.636              1.847              2.180
 Vibration    12          0.642              1.826              2.044
 Vibration    13          0.644              1.819              2.006
 Vibration    14          0.671              1.739              1.634
 Vibration    15          0.675              1.726              1.587
 Vibration    16          0.690              1.682              1.443
 Vibration    17          0.693              1.671              1.410
 Vibration    18          0.716              1.607              1.240
 Vibration    19          0.717              1.602              1.228
 Vibration    20          0.723              1.588              1.194
 Vibration    21          0.734              1.557              1.127
 Vibration    22          0.753              1.506              1.026
 Vibration    23          0.760              1.485              0.989
 Vibration    24          0.805              1.371              0.810
 Vibration    25          0.823              1.327              0.751
 Vibration    26          0.857              1.246              0.654
 Vibration    27          0.867              1.224              0.629
 Vibration    28          0.893              1.166              0.569
 Vibration    29          0.959              1.030              0.448
 Vibration    30          0.980              0.989              0.416

 Optimization completed.
    -- Stationary point found.
 Normal termination of Gaussian 16 at Sat Dec 12 10:03:29 2020.

 ----------------------------------------------------------------------
 # B3LYP/6-311++G(d,p) empiricaldispersion=gd3bj scf=xqc pop=npa geom=c
 heck
 ----------------------------------------------------------------------

 --------------------------------------
 CID_61524252_JID_9231_Energie_neutraal
 --------------------------------------
 Structure from the checkpoint file:  "JID_9231.chk"
 Charge =  0 Multiplicity = 1

 SCF Done:  E(RB3LYP) =  -1217.36906512     A.U. after   16 cycles
 Normal termination of Gaussian 16 at Sat Dec 12 10:12:12 2020.

 ----------------------------------------------------------------------
 # B3LYP/6-311++G(d,p) empiricaldispersion=gd3bj scf=xqc pop=npa geom=c
 heck
 ----------------------------------------------------------------------

 ------------------------------------
 CID_61524252_JID_9231_Energie_kation
 ------------------------------------
 Structure from the checkpoint file:  "JID_9231.chk"
 Charge =  1 Multiplicity = 2

 SCF Done:  E(UB3LYP) =  -1217.07735496     A.U. after   27 cycles
 Normal termination of Gaussian 16 at Sat Dec 12 10:32:06 2020.
 Gaussian 16:  ES64L-G16RevA.03 25-Dec-2016

 ----------------------------------------------------------------------
 # B3LYP/6-311++G(d,p) empiricaldispersion=gd3bj scf=xqc pop=npa geom=c
 heck
 ----------------------------------------------------------------------

 -----------------------------------
 CID_61524252_JID_9231_Energie_anion
 -----------------------------------
 Structure from the checkpoint file:  "JID_9231.chk"
 Charge = -1 Multiplicity = 2

                         Standard orientation:
 ---------------------------------------------------------------------
 Center     Atomic      Atomic             Coordinates (Angstroms)
 Number     Number       Type             X           Y           Z
 ---------------------------------------------------------------------
      1          6           0       -2.182536   -2.964164   -0.341383
      2          6           0       -3.193788   -2.141516   -1.158732
      3          6           0       -3.979589   -1.119186   -0.321659
      4          6           0       -3.220491    0.141966   -0.042866
      5          7           0       -3.773890    1.337662    0.036650
      6          7           0       -2.778296    2.252373    0.295874
      7          6           0       -1.644025    1.588160    0.367852
      8          7           0       -1.866998    0.236220    0.161725
      9          6           0       -0.845841   -0.812114    0.142779
     10          6           0       -1.357916   -2.150543    0.671601
     11         16           0       -0.077331    2.278121    0.762380
     12          6           0        0.742617    2.233537   -0.896703
     13          6           0        2.255155    2.418092   -0.748416
     14          6           0        2.988505    1.272145   -0.037091
     15          6           0        2.920989   -0.063736   -0.801766
     16          6           0        3.738899   -1.135648   -0.127668
     17          7           0        3.394002   -1.811678    0.911538
     18          8           0        2.057556   -1.486593    1.304567
     19          7           0        4.968690   -1.435331   -0.706158
     20          1           0       -1.502158   -3.472537   -1.036430
     21          1           0       -2.713160   -3.755599    0.203027
     22          1           0       -2.679098   -1.610870   -1.969984
     23          1           0       -3.896383   -2.827705   -1.644761
     24          1           0       -4.299642   -1.581332    0.623346
     25          1           0       -4.894545   -0.812468   -0.836661
     26          1           0       -0.016226   -0.454962    0.753512
     27          1           0       -0.466545   -0.929639   -0.881144
     28          1           0       -1.940889   -1.959916    1.580880
     29          1           0       -0.483006   -2.735205    0.976204
     30          1           0        0.506238    1.279883   -1.376138
     31          1           0        0.313683    3.032719   -1.506617
     32          1           0        2.672569    2.547686   -1.756789
     33          1           0        2.450418    3.356550   -0.214001
     34          1           0        4.040365    1.559902    0.089707
     35          1           0        2.578267    1.121539    0.965702
     36          1           0        1.886245   -0.408850   -0.861017
     37          1           0        3.282607    0.066432   -1.828992
     38          1           0        1.978110   -1.981430    2.133000
     39          1           0        5.469607   -0.630148   -1.064619
     40          1           0        5.553952   -2.017917   -0.115936
 ---------------------------------------------------------------------

 SCF Done:  E(UB3LYP) =  -1217.36538347     A.U. after   33 cycles
 SCF Done:  E(UB3LYP) =  -1217.36538347     a.u. after    1 cycles

 The electronic state is 2-A.
 Alpha  occ. eigenvalues --  -88.76769 -19.07030 -14.29282 -14.25051 -14.23408
 Alpha  occ. eigenvalues --  -14.23291 -14.22972 -10.16114 -10.15172 -10.14890
 Alpha  occ. eigenvalues --  -10.13232 -10.11891 -10.10411 -10.09702 -10.09445
 Alpha  occ. eigenvalues --  -10.09389 -10.09153 -10.09134 -10.08540  -7.85387
 Alpha  occ. eigenvalues --   -5.81803  -5.81418  -5.80729  -0.98288  -0.97394
 Alpha  occ. eigenvalues --   -0.84885  -0.84124  -0.76037  -0.73858  -0.73241
 Alpha  occ. eigenvalues --   -0.72059  -0.69463  -0.67245  -0.63114  -0.61631
 Alpha  occ. eigenvalues --   -0.58065  -0.56791  -0.51889  -0.49893  -0.49611
 Alpha  occ. eigenvalues --   -0.48382  -0.47710  -0.44335  -0.42636  -0.41465
 Alpha  occ. eigenvalues --   -0.40372  -0.38740  -0.38543  -0.38434  -0.38165
 Alpha  occ. eigenvalues --   -0.37770  -0.36004  -0.34382  -0.34088  -0.32964
 Alpha  occ. eigenvalues --   -0.32561  -0.32231  -0.30925  -0.30586  -0.30223
 Alpha  occ. eigenvalues --   -0.28695  -0.27590  -0.27059  -0.26113  -0.25883
 Alpha  occ. eigenvalues --   -0.25228  -0.25006  -0.24487  -0.23267  -0.22164
 Alpha  occ. eigenvalues --   -0.20095  -0.19146  -0.17440  -0.16910  -0.15046
 Alpha  occ. eigenvalues --   -0.13528   0.03364
 Alpha virt. eigenvalues --    0.04736   0.05998   0.06488   0.07056   0.07487
 Alpha virt. eigenvalues --    0.07865   0.08040   0.08939   0.09173   0.10071
 Alpha virt. eigenvalues --    0.10163   0.10453   0.10746   0.11019   0.11183

  Beta  occ. eigenvalues --  -88.76767 -19.07020 -14.29270 -14.25041 -14.23404
  Beta  occ. eigenvalues --  -14.23230 -14.22971 -10.16098 -10.15170 -10.14880
  Beta  occ. eigenvalues --  -10.13219 -10.11869 -10.10404 -10.09692 -10.09422
  Beta  occ. eigenvalues --  -10.09369 -10.09125 -10.09113 -10.08522  -7.85385
  Beta  occ. eigenvalues --   -5.81797  -5.81417  -5.80728  -0.98275  -0.97376
  Beta  occ. eigenvalues --   -0.84824  -0.84103  -0.76009  -0.73807  -0.73194
  Beta  occ. eigenvalues --   -0.72030  -0.69431  -0.67215  -0.63075  -0.61598
  Beta  occ. eigenvalues --   -0.58025  -0.56745  -0.51860  -0.49828  -0.49553
  Beta  occ. eigenvalues --   -0.48316  -0.47670  -0.44283  -0.42610  -0.41434
  Beta  occ. eigenvalues --   -0.40342  -0.38692  -0.38501  -0.38387  -0.38118
  Beta  occ. eigenvalues --   -0.37735  -0.35979  -0.34346  -0.34059  -0.32932
  Beta  occ. eigenvalues --   -0.32523  -0.32202  -0.30903  -0.30558  -0.30195
  Beta  occ. eigenvalues --   -0.28660  -0.27545  -0.27030  -0.26077  -0.25841
  Beta  occ. eigenvalues --   -0.25193  -0.24977  -0.24447  -0.23227  -0.22149
  Beta  occ. eigenvalues --   -0.20053  -0.19118  -0.17418  -0.16880  -0.15024
  Beta  occ. eigenvalues --   -0.13500
  Beta virt. eigenvalues --    0.05292   0.06121   0.06392   0.07051   0.07385
  Beta virt. eigenvalues --    0.07780   0.08184   0.08237   0.09252   0.09571
  Beta virt. eigenvalues --    0.10218   0.10297   0.10592   0.10985   0.11166

 Mulliken charges and spin densities:
               1          2
     1  C    0.326376  -0.952716
     2  C   -0.053132   0.089203
     3  C   -0.866396   0.417245
     4  C    0.491671  -0.660139
     5  N   -0.003074   0.011854
     6  N   -0.053334  -0.004511
     7  C   -0.249633   0.014046
     8  N    0.371515  -0.006716
     9  C   -0.906095   0.392727
    10  C   -0.143301  -0.350840
    11  S    0.234348  -0.214687
    12  C    0.163117  -0.265146
    13  C   -0.059979  -0.579050
    14  C   -0.373487   0.300096
    15  C    1.127463  -1.362428
    16  C    0.019969  -0.258482
    17  N   -0.267894  -0.027040
    18  O   -0.108583  -0.004852
    19  N   -0.272525   0.022653
    20  H   -0.044753   0.206051
    21  H   -0.140020   0.301264
    22  H   -0.067494   0.221108
    23  H   -0.404466   0.610989
    24  H    0.049761   0.122214
    25  H    0.172023   0.030467
    26  H    0.540335  -0.238425
    27  H    0.413898  -0.189753
    28  H    0.064284   0.100233
    29  H    0.130042   0.052710
    30  H   -0.195621   0.332605
    31  H    0.239304   0.059743
    32  H   -0.278584   0.443033
    33  H    0.066557   0.101605
    34  H   -0.246061   0.440755
    35  H    0.106509   0.032930
    36  H   -0.488764   0.517159
    37  H   -0.141448   0.362560
    38  H    0.176334   0.086726
    39  H   -0.251190   0.506662
    40  H   -0.077671   0.338148
 Sum of Mulliken charges =  -1.00000   1.00000

 Dipole moment (field-independent basis, Debye):
    X=             -3.0777    Y=             -0.8026    Z=              3.2441  Tot=              4.5432
 Quadrupole moment (field-independent basis, Debye-Ang):
   XX=           -236.7426   YY=           -179.3327   ZZ=           -153.1111
   XY=              9.1033   XZ=              8.6549   YZ=             -5.8510

 Summary of Natural Population Analysis:

                                       Natural Population
                Natural  -----------------------------------------------
    Atom  No    Charge         Core      Valence    Rydberg      Total
 -----------------------------------------------------------------------
      C    1   -0.18913      0.99963     2.18117    0.00833     3.18913
      C    2   -0.19196      0.99963     2.18387    0.00845     3.19196
      C    3   -0.21539      0.99959     2.20565    0.01015     3.21539
      C    4    0.19457      0.99960     1.78964    0.01620     2.80543
      N    5   -0.16848      0.99969     2.65554    0.01325     3.66848
      N    6   -0.15596      0.99967     2.64325    0.01304     3.65596
      C    7    0.09340      0.99955     1.88503    0.02202     2.90660
      N    8   -0.21621      0.99956     2.70735    0.00929     3.71621
      C    9   -0.09376      0.99959     2.08338    0.01079     3.09376
      C   10   -0.19870      0.99963     2.19084    0.00824     3.19870
      S   11    0.11495      4.99953     2.86784    0.01769     7.88505
      C   12   -0.24023      0.99958     2.23068    0.00997     3.24023
      C   13   -0.19597      0.99962     2.18666    0.00969     3.19597
      C   14   -0.19026      0.99961     2.18083    0.00982     3.19026
      C   15   -0.22504      0.99958     2.21525    0.01022     3.22504
      C   16    0.20836      0.99962     1.77230    0.01972     2.79164
      N   17   -0.13526      0.99959     2.62189    0.01378     3.63526
      O   18   -0.29980      0.99990     3.29398    0.00593     4.29980
      N   19   -0.39288      0.99971     2.88366    0.00951     3.89288
      H   20    0.10065      0.00000     0.39829    0.00106     0.39935
      H   21    0.09817      0.00000     0.40067    0.00116     0.40183
      H   22    0.09768      0.00000     0.40095    0.00137     0.40232
      H   23    0.10441      0.00000     0.39443    0.00116     0.39559
      H   24    0.10496      0.00000     0.39374    0.00130     0.39504
      H   25    0.11583      0.00000     0.38264    0.00153     0.38417
      H   26    0.12185      0.00000     0.37598    0.00217     0.37815
      H   27    0.09679      0.00000     0.40158    0.00162     0.40321
      H   28    0.09735      0.00000     0.40153    0.00111     0.40265
      H   29    0.11028      0.00000     0.38857    0.00115     0.38972
      H   30    0.10128      0.00000     0.39682    0.00189     0.39872
      H   31    0.10444      0.00000     0.39415    0.00142     0.39556
      H   32    0.10471      0.00000     0.39391    0.00138     0.39529
      H   33    0.10050      0.00000     0.39854    0.00095     0.39950
      H   34    0.10043      0.00000     0.39814    0.00143     0.39957
      H   35    0.10680      0.00000     0.39163    0.00157     0.39320
      H   36    0.11101      0.00000     0.38663    0.00236     0.38899
      H   37    0.10710      0.00000     0.39100    0.00190     0.39290
      H   38    0.23301      0.00000     0.26380    0.00320     0.26699
      H   39    0.19193      0.00000     0.30125    0.00682     0.30807
      H   40    0.18855      0.00000     0.30854    0.00290     0.31145
 =======================================================================
   * Total *   -0.00000     22.99285    52.74160    0.26554    76.00000

 Normal termination of Gaussian 16 at Sat Dec 12 10:56:42 2020.
