 Gaussian 16, Revision A.03,

 -----------------------------------------------------------
 # opt freq B3LYP/6-31G(d) empiricaldispersion=gd3bj scf=xqc
 -----------------------------------------------------------

 -------------------------------
 CID_153170898_JID_1767_neutraal
 -------------------------------
 Symbolic Z-matrix:
 Charge =  0 Multiplicity = 1

 SCF Done:  E(RB3LYP) =  -877.922053836     A.U. after   14 cycles
 SCF Done:  E(RB3LYP) =  -877.925664022     A.U. after   12 cycles
 SCF Done:  E(RB3LYP) =  -877.926316766     A.U. after   12 cycles
 SCF Done:  E(RB3LYP) =  -877.926509191     A.U. after   11 cycles
 SCF Done:  E(RB3LYP) =  -877.926606473     A.U. after   11 cycles
 SCF Done:  E(RB3LYP) =  -877.926683114     A.U. after   11 cycles
 SCF Done:  E(RB3LYP) =  -877.926728876     A.U. after   10 cycles
 SCF Done:  E(RB3LYP) =  -877.926737730     A.U. after   10 cycles
 SCF Done:  E(RB3LYP) =  -877.926740996     A.U. after    9 cycles
 SCF Done:  E(RB3LYP) =  -877.926742988     A.U. after   10 cycles
 SCF Done:  E(RB3LYP) =  -877.926742998     A.U. after    8 cycles
 SCF Done:  E(RB3LYP) =  -877.926742766     A.U. after    7 cycles
 SCF Done:  E(RB3LYP) =  -877.926742763     A.U. after    7 cycles
 SCF Done:  E(RB3LYP) =  -877.926742988     A.U. after    8 cycles
 SCF Done:  E(RB3LYP) =  -877.926742772     A.U. after    8 cycles
 Optimization completed.
    -- Stationary point found.
 Normal termination of Gaussian 16 at Tue Dec  8 21:14:58 2020.

 --------------------------------------------------------------------
 #N Geom=AllCheck Guess=TCheck SCRF=Check GenChk RB3LYP/6-31G(d) Freq
 --------------------------------------------------------------------

 Structure from the checkpoint file:  "JID_1767.chk"
 -------------------------------
 CID_153170898_JID_1767_neutraal
 -------------------------------
 Charge =  0 Multiplicity = 1

 SCF Done:  E(RB3LYP) =  -877.926742772     A.U. after    1 cycles

  Exact polarizability: 125.843   5.720  87.825   7.885  -3.817  87.212
 Approx polarizability: 167.487   7.553 129.756  14.879   0.596 140.948

                      1                      2                      3
                      A                      A                      A
 Frequencies --     49.0518                74.3506               114.2025
 Red. masses --      4.5837                 2.0439                 3.7227
 Frc consts  --      0.0065                 0.0067                 0.0286
 IR Inten    --      2.1161                 1.1865                 3.6562

                      4                      5                      6
                      A                      A                      A
 Frequencies --    147.8279               186.6224               241.3120
 Red. masses --      3.6200                 5.5855                 3.5820
 Frc consts  --      0.0466                 0.1146                 0.1229
 IR Inten    --      4.3385                 1.8052                 0.9460

                      7                      8                      9
                      A                      A                      A
 Frequencies --    262.9095               326.8819               352.9675
 Red. masses --      2.6911                 2.2788                 3.2111
 Frc consts  --      0.1096                 0.1435                 0.2357
 IR Inten    --      3.4110                10.3323                 1.0438

                     10                     11                     12
                      A                      A                      A
 Frequencies --    384.7360               411.1167               416.8888
 Red. masses --      2.7669                 3.2136                 3.7127
 Frc consts  --      0.2413                 0.3200                 0.3802
 IR Inten    --      0.9351                12.8660                23.4915

                     13                     14                     15
                      A                      A                      A
 Frequencies --    467.5378               509.0962               524.4261
 Red. masses --      3.0072                 4.5337                 2.5494
 Frc consts  --      0.3873                 0.6923                 0.4131
 IR Inten    --      6.6950                 5.4468                22.4369

                     16                     17                     18
                      A                      A                      A
 Frequencies --    623.9263               642.6003               700.2317
 Red. masses --      1.7677                 2.7142                 2.0458
 Frc consts  --      0.4054                 0.6604                 0.5910
 IR Inten    --     28.2505                48.4285                22.1846

                     19                     20                     21
                      A                      A                      A
 Frequencies --    705.8900               761.9010               814.4293
 Red. masses --      1.8805                 1.8746                 2.5180
 Frc consts  --      0.5521                 0.6411                 0.9840
 IR Inten    --      5.7010                31.9828                 2.8362

                     22                     23                     24
                      A                      A                      A
 Frequencies --    824.2953               853.7719               918.0219
 Red. masses --      1.5172                 2.5528                 1.7492
 Frc consts  --      0.6074                 1.0963                 0.8686
 IR Inten    --     53.0031                30.7542                 3.1964

                     25                     26                     27
                      A                      A                      A
 Frequencies --    941.9954               970.0227               975.0129
 Red. masses --      1.8531                 1.8066                 2.3970
 Frc consts  --      0.9688                 1.0015                 1.3426
 IR Inten    --      1.7633                17.1709                19.2169

                     28                     29                     30
                      A                      A                      A
 Frequencies --   1001.9530              1016.8473              1053.9539
 Red. masses --      1.1219                 1.7328                 2.2006
 Frc consts  --      0.6636                 1.0556                 1.4403
 IR Inten    --     17.4718                 0.5958                 1.1758

                     31                     32                     33
                      A                      A                      A
 Frequencies --   1093.9972              1109.1048              1129.6276
 Red. masses --      2.5103                 2.3063                 1.8494
 Frc consts  --      1.7701                 1.6715                 1.3904
 IR Inten    --     85.4240               106.4767                34.7361

                     34                     35                     36
                      A                      A                      A
 Frequencies --   1164.8426              1183.3942              1217.1381
 Red. masses --      1.6612                 1.1086                 1.3652
 Frc consts  --      1.3280                 0.9147                 1.1916
 IR Inten    --     17.6068                 0.9367                22.6295

                     37                     38                     39
                      A                      A                      A
 Frequencies --   1259.7057              1279.0228              1302.6780
 Red. masses --      2.3934                 1.4932                 3.0129
 Frc consts  --      2.2377                 1.4393                 3.0124
 IR Inten    --    107.7169                 3.4232               127.9745

                     40                     41                     42
                      A                      A                      A
 Frequencies --   1330.3078              1351.8197              1354.9459
 Red. masses --      1.3605                 1.4343                 1.3815
 Frc consts  --      1.4186                 1.5443                 1.4943
 IR Inten    --      0.4890                31.5165                41.2167

                     43                     44                     45
                      A                      A                      A
 Frequencies --   1361.2713              1393.8672              1399.6666
 Red. masses --      1.4713                 1.4783                 1.3608
 Frc consts  --      1.6063                 1.6922                 1.5707
 IR Inten    --     11.6272                31.6591                 1.3518

                     46                     47                     48
                      A                      A                      A
 Frequencies --   1416.2838              1443.6472              1470.7359
 Red. masses --      1.4048                 1.2755                 1.0954
 Frc consts  --      1.6602                 1.5663                 1.3960
 IR Inten    --     24.5454                 0.8899                 6.0861

                     49                     50                     51
                      A                      A                      A
 Frequencies --   1483.4188              1507.6742              1523.9304
 Red. masses --      1.0913                 1.1093                 1.1403
 Frc consts  --      1.4149                 1.4856                 1.5602
 IR Inten    --     10.0446                17.4492                10.7078

                     52                     53                     54
                      A                      A                      A
 Frequencies --   1534.7067              1733.6832              2984.1358
 Red. masses --      1.1997                 4.0220                 1.0839
 Frc consts  --      1.6648                 7.1225                 5.6870
 IR Inten    --      4.0419               158.1484                57.3138

                     55                     56                     57
                      A                      A                      A
 Frequencies --   3049.6786              3076.2066              3097.5996
 Red. masses --      1.0696                 1.0628                 1.0592
 Frc consts  --      5.8609                 5.9257                 5.9879
 IR Inten    --     35.1774                23.3527                 1.9945

                     58                     59                     60
                      A                      A                      A
 Frequencies --   3099.4324              3114.7936              3118.2000
 Red. masses --      1.0599                 1.0990                 1.0972
 Frc consts  --      5.9990                 6.2819                 6.2858
 IR Inten    --      2.4217                 4.5956                13.2948

                     61                     62                     63
                      A                      A                      A
 Frequencies --   3158.5225              3162.0733              3168.3195
 Red. masses --      1.1070                 1.1072                 1.0618
 Frc consts  --      6.5068                 6.5228                 6.2797
 IR Inten    --      2.3731                 3.5929                 7.1671

                     64                     65                     66
                      A                      A                      A
 Frequencies --   3193.9939              3262.4319              3528.9066
 Red. masses --      1.0903                 1.1133                 1.0745
 Frc consts  --      6.5534                 6.9813                 7.8837
 IR Inten    --      8.5142                12.6099                 1.3552

 - Thermochemistry -
 -------------------
 Temperature   298.150 Kelvin.  Pressure   1.00000 Atm.
 Atom     1 has atomic number  6 and mass  12.00000

 Molecular mass:   175.06670 amu.
 Principal axes and moments of inertia in atomic units:
                           1         2         3
     Eigenvalues --   893.335473216.341403296.56916
           X            0.99994   0.01027   0.00234
           Y           -0.00925   0.96231  -0.27180
           Z           -0.00504   0.27177   0.96235
 This molecule is an asymmetric top.
 Rotational symmetry number  1.
 Warning -- assumption of classical behavior for rotation
           may cause significant error
 Rotational temperatures (Kelvin)      0.09696     0.02693     0.02627
 Rotational constants (GHZ):           2.02023     0.56112     0.54746
 Zero-point vibrational energy     534339.2 (Joules/Mol)
                                  127.71014 (Kcal/Mol)
 Warning -- explicit consideration of  15 degrees of freedom as
           vibrations may cause significant error
 Vibrational temperatures:     70.57   106.97   164.31   212.69   268.51
          (Kelvin)            347.19   378.27   470.31   507.84   553.55
                              591.51   599.81   672.68   732.48   754.53
                              897.69   924.56  1007.48  1015.62  1096.21
                             1171.78  1185.98  1228.39  1320.83  1355.32
                             1395.65  1402.83  1441.59  1463.02  1516.40
                             1574.02  1595.75  1625.28  1675.95  1702.64
                             1751.19  1812.44  1840.23  1874.26  1914.02
                             1944.97  1949.46  1958.57  2005.46  2013.81
                             2037.72  2077.09  2116.06  2134.31  2169.21
                             2192.60  2208.10  2494.38  4293.51  4387.81
                             4425.98  4456.75  4459.39  4481.49  4486.39
                             4544.41  4549.52  4558.51  4595.44  4693.91
                             5077.31

 Zero-point correction=                           0.203519 (Hartree/Particle)
 Thermal correction to Energy=                    0.214553
 Thermal correction to Enthalpy=                  0.215497
 Thermal correction to Gibbs Free Energy=         0.166429
 Sum of electronic and zero-point Energies=           -877.723224
 Sum of electronic and thermal Energies=              -877.712190
 Sum of electronic and thermal Enthalpies=            -877.711246
 Sum of electronic and thermal Free Energies=         -877.760314

                     E (Thermal)             CV                S
                      KCal/Mol        Cal/Mol-Kelvin    Cal/Mol-Kelvin
 Total                  134.634             42.569            103.273
 Electronic               0.000              0.000              0.000
 Translational            0.889              2.981             41.387
 Rotational               0.889              2.981             30.628
 Vibrational            132.857             36.607             31.258
 Vibration     1          0.595              1.978              4.855
 Vibration     2          0.599              1.966              4.035
 Vibration     3          0.607              1.938              3.196
 Vibration     4          0.617              1.905              2.700
 Vibration     5          0.632              1.858              2.261
 Vibration     6          0.658              1.777              1.793
 Vibration     7          0.670              1.741              1.642
 Vibration     8          0.711              1.622              1.275
 Vibration     9          0.729              1.569              1.153
 Vibration    10          0.754              1.503              1.020
 Vibration    11          0.775              1.446              0.923
 Vibration    12          0.780              1.434              0.903
 Vibration    13          0.825              1.322              0.744
 Vibration    14          0.864              1.230              0.636
 Vibration    15          0.879              1.196              0.600

 Optimization completed.
    -- Stationary point found.
 Normal termination of Gaussian 16 at Tue Dec  8 21:21:02 2020.

 ----------------------------------------------------------------------
 # B3LYP/6-311++G(d,p) empiricaldispersion=gd3bj scf=xqc pop=npa geom=c
 heck
 ----------------------------------------------------------------------

 ---------------------------------------
 CID_153170898_JID_1767_Energie_neutraal
 ---------------------------------------
 Structure from the checkpoint file:  "JID_1767.chk"
 Charge =  0 Multiplicity = 1

 SCF Done:  E(RB3LYP) =  -878.097323218     A.U. after   14 cycles
 Normal termination of Gaussian 16 at Tue Dec  8 21:26:07 2020.

 ----------------------------------------------------------------------
 # B3LYP/6-311++G(d,p) empiricaldispersion=gd3bj scf=xqc pop=npa geom=c
 heck
 ----------------------------------------------------------------------

 -------------------------------------
 CID_153170898_JID_1767_Energie_kation
 -------------------------------------
 Structure from the checkpoint file:  "JID_1767.chk"
 Charge =  1 Multiplicity = 2

 SCF Done:  E(UB3LYP) =  -877.788734557     A.U. after   24 cycles
 Normal termination of Gaussian 16 at Tue Dec  8 21:32:35 2020.
 Gaussian 16:  ES64L-G16RevA.03 25-Dec-2016

 ----------------------------------------------------------------------
 # B3LYP/6-311++G(d,p) empiricaldispersion=gd3bj scf=xqc pop=npa geom=c
 heck
 ----------------------------------------------------------------------

 ------------------------------------
 CID_153170898_JID_1767_Energie_anion
 ------------------------------------
 Structure from the checkpoint file:  "JID_1767.chk"
 Charge = -1 Multiplicity = 2

                         Standard orientation:
 ---------------------------------------------------------------------
 Center     Atomic      Atomic             Coordinates (Angstroms)
 Number     Number       Type             X           Y           Z
 ---------------------------------------------------------------------
      1          6           0       -4.211773   -0.486104   -0.646375
      2          6           0       -3.033859   -0.503922   -0.011220
      3          7           0       -1.917785    0.272291   -0.331814
      4          6           0       -1.035846    0.760140    0.736668
      5          6           0       -0.018724    1.734954    0.118372
      6          6           0        0.877544    1.088527   -0.942874
      7         16           0        1.846545   -0.262364   -0.219819
      8          8           0        2.496432   -1.022409   -1.297751
      9          8           0        2.640470    0.305392    0.886574
     10          6           0        0.524223   -1.262595    0.511022
     11          6           0       -0.330542   -0.409402    1.450761
     12          1           0       -4.417199    0.200013   -1.464739
     13          1           0       -4.993953   -1.185410   -0.376365
     14          1           0       -2.864685   -1.206334    0.800919
     15          1           0       -2.149877    1.007737   -0.993418
     16          1           0       -1.605227    1.315927    1.499507
     17          1           0        0.608648    2.148736    0.913646
     18          1           0       -0.552531    2.578183   -0.339651
     19          1           0        1.614123    1.790474   -1.344231
     20          1           0        0.306335    0.655227   -1.767257
     21          1           0       -0.057266   -1.672964   -0.317724
     22          1           0        1.033673   -2.075360    1.036478
     23          1           0        0.302468   -0.000609    2.244865
     24          1           0       -1.066099   -1.057289    1.939067
 ---------------------------------------------------------------------

 SCF Done:  E(UB3LYP) =  -878.089207080     A.U. after   29 cycles

 The electronic state is 2-A.
 Alpha  occ. eigenvalues --  -88.94158 -19.01561 -19.01274 -14.22379 -10.11930
 Alpha  occ. eigenvalues --  -10.11241 -10.11028 -10.10638 -10.08965 -10.08722
 Alpha  occ. eigenvalues --  -10.05245  -8.00707  -5.96975  -5.96853  -5.96796
 Alpha  occ. eigenvalues --   -1.00565  -0.90294  -0.83863  -0.74051  -0.68680
 Alpha  occ. eigenvalues --   -0.66409  -0.62119  -0.55779  -0.52416  -0.49268
 Alpha  occ. eigenvalues --   -0.46988  -0.41463  -0.40223  -0.40084  -0.38471
 Alpha  occ. eigenvalues --   -0.37407  -0.35754  -0.33964  -0.33777  -0.32366
 Alpha  occ. eigenvalues --   -0.32043  -0.28330  -0.28171  -0.27884  -0.26742
 Alpha  occ. eigenvalues --   -0.25079  -0.23197  -0.22191  -0.22115  -0.20329
 Alpha  occ. eigenvalues --   -0.18442  -0.11639   0.04254
 Alpha virt. eigenvalues --    0.06557   0.07858   0.08185   0.09227   0.09701
 Alpha virt. eigenvalues --    0.10005   0.10627   0.11079   0.11784   0.11965
 Alpha virt. eigenvalues --    0.13311   0.13950   0.14173   0.14957   0.15581

  Beta  occ. eigenvalues --  -88.94158 -19.01558 -19.01266 -14.22348 -10.11913
  Beta  occ. eigenvalues --  -10.11224 -10.11006 -10.10624 -10.08935 -10.08677
  Beta  occ. eigenvalues --  -10.05220  -8.00707  -5.96974  -5.96853  -5.96797
  Beta  occ. eigenvalues --   -1.00556  -0.90283  -0.83814  -0.74005  -0.68630
  Beta  occ. eigenvalues --   -0.66367  -0.62060  -0.55702  -0.52368  -0.49189
  Beta  occ. eigenvalues --   -0.46930  -0.41389  -0.40193  -0.40039  -0.38414
  Beta  occ. eigenvalues --   -0.37378  -0.35707  -0.33920  -0.33736  -0.32307
  Beta  occ. eigenvalues --   -0.32000  -0.28290  -0.28124  -0.27825  -0.26702
  Beta  occ. eigenvalues --   -0.25022  -0.23174  -0.22181  -0.22080  -0.20307
  Beta  occ. eigenvalues --   -0.18415  -0.11591
  Beta virt. eigenvalues --    0.06915   0.07996   0.08328   0.08778   0.09805
  Beta virt. eigenvalues --    0.10028   0.10447   0.10995   0.11500   0.12208
  Beta virt. eigenvalues --    0.12322   0.13559   0.14439   0.14658   0.15284

 Mulliken charges and spin densities:
               1          2
     1  C    0.010748  -0.559719
     2  C    0.320194  -0.319532
     3  N    0.058371  -0.093903
     4  C    0.503355  -0.281250
     5  C    0.024316  -0.557226
     6  C   -0.588030  -0.181144
     7  S    1.297160  -0.629090
     8  O   -0.183987   0.028523
     9  O   -0.268569   0.005392
    10  C   -1.121338   0.300165
    11  C    1.145639  -1.517091
    12  H   -0.278628   0.370845
    13  H   -0.025197   0.137744
    14  H   -0.139936   0.248489
    15  H    0.321872  -0.066452
    16  H   -0.546156   0.810802
    17  H    0.046263   0.141675
    18  H   -1.149715   1.374596
    19  H    0.007250   0.252998
    20  H   -0.095823   0.319883
    21  H    0.137002   0.106585
    22  H    0.093328   0.156930
    23  H   -0.096470   0.312107
    24  H   -0.471650   0.638672
 Sum of Mulliken charges =  -1.00000   1.00000

 Dipole moment (field-independent basis, Debye):
    X=              2.0072    Y=             -3.2753    Z=             -0.4532  Tot=              3.8681
 Quadrupole moment (field-independent basis, Debye-Ang):
   XX=           -136.7132   YY=           -117.5688   ZZ=           -112.0645
   XY=              6.7584   XZ=              2.0776   YZ=              1.6802

 Summary of Natural Population Analysis:

                                       Natural Population
                Natural  -----------------------------------------------
    Atom  No    Charge         Core      Valence    Rydberg      Total
 -----------------------------------------------------------------------
      C    1   -0.24362      0.99959     2.23628    0.00775     3.24362
      C    2    0.01741      0.99954     1.97098    0.01207     2.98259
      N    3   -0.33518      0.99969     2.82277    0.01272     3.83518
      C    4   -0.00418      0.99958     1.99061    0.01400     3.00418
      C    5   -0.20472      0.99960     2.19332    0.01180     3.20472
      C    6   -0.29050      0.99958     2.27814    0.01277     3.29050
      S    7    1.02061      4.99925     1.88636    0.09378     6.97939
      O    8   -0.47132      0.99991     3.46597    0.00544     4.47132
      O    9   -0.47467      0.99991     3.46932    0.00543     4.47467
      C   10   -0.29203      0.99958     2.28006    0.01239     3.29203
      C   11   -0.20690      0.99960     2.19618    0.01111     3.20690
      H   12    0.09215      0.00000     0.40668    0.00118     0.40785
      H   13    0.09590      0.00000     0.40321    0.00089     0.40410
      H   14    0.09039      0.00000     0.40799    0.00161     0.40961
      H   15    0.18612      0.00000     0.30860    0.00529     0.31388
      H   16    0.09650      0.00000     0.39998    0.00353     0.40350
      H   17    0.11216      0.00000     0.38647    0.00137     0.38784
      H   18    0.11504      0.00000     0.37795    0.00701     0.38496
      H   19    0.12007      0.00000     0.37868    0.00125     0.37993
      H   20    0.11762      0.00000     0.38081    0.00158     0.38238
      H   21    0.11855      0.00000     0.37994    0.00151     0.38145
      H   22    0.11819      0.00000     0.38061    0.00120     0.38181
      H   23    0.11309      0.00000     0.38554    0.00137     0.38691
      H   24    0.10933      0.00000     0.38835    0.00233     0.39067
 =======================================================================
   * Total *    0.00000     14.99583    31.77478    0.22939    47.00000

 Normal termination of Gaussian 16 at Tue Dec  8 21:41:09 2020.
