 Gaussian 16, Revision A.03,

 -----------------------------------------------------------
 # opt freq B3LYP/6-31G(d) empiricaldispersion=gd3bj scf=xqc
 -----------------------------------------------------------

 ------------------------------
 CID_82839905_JID_8640_neutraal
 ------------------------------
 Symbolic Z-matrix:
 Charge =  0 Multiplicity = 1

 SCF Done:  E(RB3LYP) =  -1597.40611995     A.U. after   15 cycles
 SCF Done:  E(RB3LYP) =  -1597.41660044     A.U. after   13 cycles
 SCF Done:  E(RB3LYP) =  -1597.41780574     A.U. after   13 cycles
 SCF Done:  E(RB3LYP) =  -1597.42022014     A.U. after   13 cycles
 SCF Done:  E(RB3LYP) =  -1597.42178181     A.U. after   12 cycles
 SCF Done:  E(RB3LYP) =  -1597.42283038     A.U. after   12 cycles
 SCF Done:  E(RB3LYP) =  -1597.42312847     A.U. after   12 cycles
 SCF Done:  E(RB3LYP) =  -1597.42321355     A.U. after   11 cycles
 SCF Done:  E(RB3LYP) =  -1597.42328247     A.U. after   11 cycles
 SCF Done:  E(RB3LYP) =  -1597.42330900     A.U. after   10 cycles
 SCF Done:  E(RB3LYP) =  -1597.42333809     A.U. after   10 cycles
 SCF Done:  E(RB3LYP) =  -1597.42333956     A.U. after    9 cycles
 SCF Done:  E(RB3LYP) =  -1597.42334206     A.U. after   10 cycles
 SCF Done:  E(RB3LYP) =  -1597.42334249     A.U. after    8 cycles
 SCF Done:  E(RB3LYP) =  -1597.42334256     A.U. after    7 cycles
 Optimization completed.
    -- Stationary point found.
 Normal termination of Gaussian 16 at Fri Dec 11 21:25:24 2020.

 --------------------------------------------------------------------
 #N Geom=AllCheck Guess=TCheck SCRF=Check GenChk RB3LYP/6-31G(d) Freq
 --------------------------------------------------------------------

 Structure from the checkpoint file:  "JID_8640.chk"
 ------------------------------
 CID_82839905_JID_8640_neutraal
 ------------------------------
 Charge =  0 Multiplicity = 1

 SCF Done:  E(RB3LYP) =  -1597.42334256     A.U. after    1 cycles

  Exact polarizability: 187.392   8.675 166.874 -13.851   9.404 128.605
 Approx polarizability: 262.783  15.724 277.839 -30.388  26.237 214.797

                      1                      2                      3
                      A                      A                      A
 Frequencies --     30.3806                40.5409                50.3362
 Red. masses --      4.1725                 4.3189                 3.7945
 Frc consts  --      0.0023                 0.0042                 0.0057
 IR Inten    --      0.0514                 2.1207                 0.5826

                      4                      5                      6
                      A                      A                      A
 Frequencies --     60.6709                76.7768               103.4136
 Red. masses --      5.3869                 4.1650                 5.1777
 Frc consts  --      0.0117                 0.0145                 0.0326
 IR Inten    --      4.0269                 0.0476                 7.5424

                      7                      8                      9
                      A                      A                      A
 Frequencies --    122.5497               154.3643               182.2243
 Red. masses --      3.4634                 4.7452                 2.7629
 Frc consts  --      0.0306                 0.0666                 0.0541
 IR Inten    --      0.9475                 6.2123                 0.6419

                     10                     11                     12
                      A                      A                      A
 Frequencies --    202.6912               206.6242               230.2933
 Red. masses --      1.6890                 1.7830                 4.2012
 Frc consts  --      0.0409                 0.0449                 0.1313
 IR Inten    --      4.8272                 1.0946                 3.5030

                     13                     14                     15
                      A                      A                      A
 Frequencies --    230.7451               252.0885               264.6358
 Red. masses --      3.3293                 2.1556                 8.1123
 Frc consts  --      0.1044                 0.0807                 0.3347
 IR Inten    --      2.2365                 1.8798                 2.1666

                     16                     17                     18
                      A                      A                      A
 Frequencies --    271.9619               307.1696               316.2521
 Red. masses --      3.7443                 2.1747                 1.0831
 Frc consts  --      0.1632                 0.1209                 0.0638
 IR Inten    --      5.5433                 4.9739                19.7363

                     19                     20                     21
                      A                      A                      A
 Frequencies --    330.4104               335.3636               348.1881
 Red. masses --      5.3334                 3.5942                 3.3011
 Frc consts  --      0.3431                 0.2382                 0.2358
 IR Inten    --      1.9193                 1.0286                 0.4693

                     22                     23                     24
                      A                      A                      A
 Frequencies --    387.8711               443.1613               452.4744
 Red. masses --      4.0457                 4.6638                 3.7419
 Frc consts  --      0.3586                 0.5397                 0.4514
 IR Inten    --      1.7669                45.9838                 1.8597

                     25                     26                     27
                      A                      A                      A
 Frequencies --    479.5672               486.7273               493.4636
 Red. masses --      4.4420                 6.9206                 3.8123
 Frc consts  --      0.6019                 0.9660                 0.5470
 IR Inten    --     21.5474                38.6529                36.9516

                     28                     29                     30
                      A                      A                      A
 Frequencies --    533.9329               537.5029               553.3429
 Red. masses --      6.2242                 3.9438                 5.2395
 Frc consts  --      1.0455                 0.6713                 0.9452
 IR Inten    --     13.0686                95.2626                10.3938

                     31                     32                     33
                      A                      A                      A
 Frequencies --    576.4352               644.7628               674.1616
 Red. masses --      1.7841                 4.2471                 4.8943
 Frc consts  --      0.3493                 1.0403                 1.3106
 IR Inten    --    237.3089                37.6232                 4.1737

                     34                     35                     36
                      A                      A                      A
 Frequencies --    685.9233               713.5030               747.5689
 Red. masses --      4.7418                 2.2500                 4.3171
 Frc consts  --      1.3144                 0.6749                 1.4215
 IR Inten    --      5.8029                19.0849                83.3221

                     37                     38                     39
                      A                      A                      A
 Frequencies --    766.1445               787.6662               795.0417
 Red. masses --      3.3488                 1.7168                 1.4744
 Frc consts  --      1.1582                 0.6275                 0.5491
 IR Inten    --     18.3251                14.1233                31.8974

                     40                     41                     42
                      A                      A                      A
 Frequencies --    849.1032               879.8532               884.5756
 Red. masses --      2.2517                 1.9456                 1.6673
 Frc consts  --      0.9565                 0.8874                 0.7686
 IR Inten    --     11.8976               118.1907                26.0730

                     43                     44                     45
                      A                      A                      A
 Frequencies --    902.5648               967.9829               975.9663
 Red. masses --      1.3934                 1.2897                 2.3211
 Frc consts  --      0.6688                 0.7120                 1.3026
 IR Inten    --      4.6735                 1.2314                27.3799

                     46                     47                     48
                      A                      A                      A
 Frequencies --    989.7808              1004.6297              1012.4298
 Red. masses --      2.3468                 1.3948                 1.4523
 Frc consts  --      1.3546                 0.8294                 0.8771
 IR Inten    --     49.8984                 4.5431                21.4770

                     49                     50                     51
                      A                      A                      A
 Frequencies --   1018.9694              1090.7812              1098.1324
 Red. masses --      5.8665                 3.0623                 1.6172
 Frc consts  --      3.5888                 2.1467                 1.1490
 IR Inten    --      5.4336                63.3394                 4.3758

                     52                     53                     54
                      A                      A                      A
 Frequencies --   1105.6963              1119.2244              1124.1404
 Red. masses --      3.0114                 2.0572                 5.3694
 Frc consts  --      2.1691                 1.5183                 3.9978
 IR Inten    --      7.4008                63.6390               246.7122

                     55                     56                     57
                      A                      A                      A
 Frequencies --   1148.7083              1171.1212              1201.0983
 Red. masses --      1.2973                 1.5008                 1.1699
 Frc consts  --      1.0086                 1.2127                 0.9944
 IR Inten    --      9.5768                12.2543                11.1793

                     58                     59                     60
                      A                      A                      A
 Frequencies --   1202.4970              1244.2469              1247.7439
 Red. masses --      1.9700                 2.4060                 1.5542
 Frc consts  --      1.6784                 2.1946                 1.4256
 IR Inten    --     35.7289                42.0207                46.5230

                     61                     62                     63
                      A                      A                      A
 Frequencies --   1320.2322              1327.5976              1346.8754
 Red. masses --      7.3224                 3.1717                 2.8312
 Frc consts  --      7.5197                 3.2936                 3.0261
 IR Inten    --    215.3022                82.6190               115.9664

                     64                     65                     66
                      A                      A                      A
 Frequencies --   1348.7020              1362.0261              1374.9785
 Red. masses --      1.4945                 1.6419                 4.0332
 Frc consts  --      1.6017                 1.7947                 4.4925
 IR Inten    --     28.0453                 6.9341                25.8774

                     67                     68                     69
                      A                      A                      A
 Frequencies --   1381.2432              1408.2661              1438.4079
 Red. masses --      1.2919                 1.2863                 1.0882
 Frc consts  --      1.4522                 1.5030                 1.3266
 IR Inten    --     10.3270                12.7024                16.8229

                     70                     71                     72
                      A                      A                      A
 Frequencies --   1441.0121              1478.1461              1493.7144
 Red. masses --      1.2653                 1.0525                 1.0506
 Frc consts  --      1.5481                 1.3549                 1.3811
 IR Inten    --      6.3869                 4.0636                 6.8353

                     73                     74                     75
                      A                      A                      A
 Frequencies --   1506.6749              1518.2969              1523.1273
 Red. masses --      2.6554                 1.0663                 1.0829
 Frc consts  --      3.5515                 1.4482                 1.4802
 IR Inten    --      7.4757                 7.7719                 5.6923

                     76                     77                     78
                      A                      A                      A
 Frequencies --   1536.7119              1549.0842              1646.5958
 Red. masses --      1.0702                 2.5852                 5.9709
 Frc consts  --      1.4890                 3.6551                 9.5382
 IR Inten    --      4.4804                58.6985                28.5744

                     79                     80                     81
                      A                      A                      A
 Frequencies --   1664.9736              1695.0928              3058.0353
 Red. masses --      3.7301                 1.2815                 1.0351
 Frc consts  --      6.0924                 2.1694                 5.7031
 IR Inten    --     71.6945               143.4029                21.3865

                     82                     83                     84
                      A                      A                      A
 Frequencies --   3088.0672              3101.7578              3112.0539
 Red. masses --      1.0290                 1.0681                 1.0573
 Frc consts  --      5.7812                 6.0546                 6.0333
 IR Inten    --      2.5903                 6.8271                 3.6634

                     85                     86                     87
                      A                      A                      A
 Frequencies --   3127.0393              3135.4913              3176.1662
 Red. masses --      1.1021                 1.1001                 1.1002
 Frc consts  --      6.3497                 6.3725                 6.5395
 IR Inten    --     24.9036                20.8155                 6.1362

                     88                     89                     90
                      A                      A                      A
 Frequencies --   3181.2680              3182.3211              3188.2767
 Red. masses --      1.0879                 1.1088                 1.1069
 Frc consts  --      6.4871                 6.6161                 6.6292
 IR Inten    --     12.7861                 5.3485                 0.1330

                     91                     92                     93
                      A                      A                      A
 Frequencies --   3202.5869              3204.0505              3206.5962
 Red. masses --      1.0915                 1.0927                 1.1083
 Frc consts  --      6.5961                 6.6092                 6.7140
 IR Inten    --      2.3250                24.1642                 5.9667

                     94                     95                     96
                      A                      A                      A
 Frequencies --   3244.2610              3562.3363              3663.4211
 Red. masses --      1.0937                 1.0476                 1.0991
 Frc consts  --      6.7822                 7.8328                 8.6911
 IR Inten    --      0.7736                20.3966                11.8383

 - Thermochemistry -
 -------------------
 Temperature   298.150 Kelvin.  Pressure   1.00000 Atm.
 Atom     1 has atomic number  6 and mass  12.00000

 Molecular mass:   292.05515 amu.
 Principal axes and moments of inertia in atomic units:
                           1         2         3
     Eigenvalues --  3756.370916234.183587684.87605
           X            0.99997   0.00804   0.00160
           Y           -0.00797   0.99917  -0.03997
           Z           -0.00192   0.03996   0.99920
 This molecule is an asymmetric top.
 Rotational symmetry number  1.
 Warning -- assumption of classical behavior for rotation
           may cause significant error
 Rotational temperatures (Kelvin)      0.02306     0.01389     0.01127
 Rotational constants (GHZ):           0.48045     0.28949     0.23484
 Zero-point vibrational energy     705268.4 (Joules/Mol)
                                  168.56319 (Kcal/Mol)
 Warning -- explicit consideration of  31 degrees of freedom as
           vibrations may cause significant error
 Vibrational temperatures:     43.71    58.33    72.42    87.29   110.46
          (Kelvin)            148.79   176.32   222.10   262.18   291.63
                              297.29   331.34   331.99   362.70   380.75
                              391.29   441.95   455.02   475.39   482.51
                              500.97   558.06   637.61   651.01   689.99
                              700.29   709.98   768.21   773.35   796.14
                              829.36   927.67   969.97   986.89  1026.57
                             1075.58  1102.31  1133.28  1143.89  1221.67
                             1265.91  1272.71  1298.59  1392.71  1404.20
                             1424.07  1445.44  1456.66  1466.07  1569.39
                             1579.97  1590.85  1610.31  1617.39  1652.73
                             1684.98  1728.11  1730.12  1790.19  1795.23
                             1899.52  1910.12  1937.85  1940.48  1959.65
                             1978.29  1987.30  2026.18  2069.55  2073.30
                             2126.72  2149.12  2167.77  2184.49  2191.44
                             2210.99  2228.79  2369.08  2395.53  2438.86
                             4399.83  4443.04  4462.74  4477.55  4499.11
                             4511.27  4569.79  4577.14  4578.65  4587.22
                             4607.81  4609.91  4613.58  4667.77  5125.41
                             5270.85

 Zero-point correction=                           0.268623 (Hartree/Particle)
 Thermal correction to Energy=                    0.287688
 Thermal correction to Enthalpy=                  0.288633
 Thermal correction to Gibbs Free Energy=         0.220939
 Sum of electronic and zero-point Energies=          -1597.154720
 Sum of electronic and thermal Energies=             -1597.135654
 Sum of electronic and thermal Enthalpies=           -1597.134710
 Sum of electronic and thermal Free Energies=        -1597.202404

                     E (Thermal)             CV                S
                      KCal/Mol        Cal/Mol-Kelvin    Cal/Mol-Kelvin
 Total                  180.527             71.738            142.473
 Electronic               0.000              0.000              0.000
 Translational            0.889              2.981             42.913
 Rotational               0.889              2.981             33.553
 Vibrational            178.750             65.777             66.007
 Vibration     1          0.594              1.984              5.804
 Vibration     2          0.594              1.981              5.232
 Vibration     3          0.595              1.977              4.804
 Vibration     4          0.597              1.973              4.435
 Vibration     5          0.599              1.965              3.972
 Vibration     6          0.605              1.946              3.389
 Vibration     7          0.610              1.930              3.060
 Vibration     8          0.620              1.898              2.618
 Vibration     9          0.630              1.864              2.306
 Vibration    10          0.639              1.836              2.109
 Vibration    11          0.641              1.830              2.073
 Vibration    12          0.652              1.795              1.877
 Vibration    13          0.652              1.794              1.873
 Vibration    14          0.664              1.759              1.716
 Vibration    15          0.671              1.738              1.631
 Vibration    16          0.675              1.725              1.584
 Vibration    17          0.697              1.660              1.378
 Vibration    18          0.703              1.643              1.329
 Vibration    19          0.713              1.615              1.258
 Vibration    20          0.716              1.605              1.234
 Vibration    21          0.726              1.579              1.174
 Vibration    22          0.756              1.496              1.008
 Vibration    23          0.803              1.376              0.817
 Vibration    24          0.811              1.355              0.788
 Vibration    25          0.836              1.295              0.711
 Vibration    26          0.843              1.279              0.692
 Vibration    27          0.849              1.265              0.675
 Vibration    28          0.889              1.175              0.578
 Vibration    29          0.893              1.167              0.571
 Vibration    30          0.909              1.132              0.537
 Vibration    31          0.933              1.082              0.492

 Optimization completed.
    -- Stationary point found.
 Normal termination of Gaussian 16 at Fri Dec 11 21:41:50 2020.

 ----------------------------------------------------------------------
 # B3LYP/6-311++G(d,p) empiricaldispersion=gd3bj scf=xqc pop=npa geom=c
 heck
 ----------------------------------------------------------------------

 --------------------------------------
 CID_82839905_JID_8640_Energie_neutraal
 --------------------------------------
 Structure from the checkpoint file:  "JID_8640.chk"
 Charge =  0 Multiplicity = 1

 SCF Done:  E(RB3LYP) =  -1597.71355273     A.U. after   16 cycles
 Normal termination of Gaussian 16 at Fri Dec 11 21:48:18 2020.

 ----------------------------------------------------------------------
 # B3LYP/6-311++G(d,p) empiricaldispersion=gd3bj scf=xqc pop=npa geom=c
 heck
 ----------------------------------------------------------------------

 ------------------------------------
 CID_82839905_JID_8640_Energie_kation
 ------------------------------------
 Structure from the checkpoint file:  "JID_8640.chk"
 Charge =  1 Multiplicity = 2

 SCF Done:  E(UB3LYP) =  -1597.42038728     A.U. after   25 cycles
 Normal termination of Gaussian 16 at Fri Dec 11 22:01:56 2020.
 Gaussian 16:  ES64L-G16RevA.03 25-Dec-2016

 ----------------------------------------------------------------------
 # B3LYP/6-311++G(d,p) empiricaldispersion=gd3bj scf=xqc pop=npa geom=c
 heck
 ----------------------------------------------------------------------

 -----------------------------------
 CID_82839905_JID_8640_Energie_anion
 -----------------------------------
 Structure from the checkpoint file:  "JID_8640.chk"
 Charge = -1 Multiplicity = 2

                         Standard orientation:
 ---------------------------------------------------------------------
 Center     Atomic      Atomic             Coordinates (Angstroms)
 Number     Number       Type             X           Y           Z
 ---------------------------------------------------------------------
      1          6           0        1.047639   -2.430330    2.370127
      2          6           0        0.029037   -1.459746    1.783240
      3          7           0        0.324080   -1.211915    0.354828
      4          6           0        1.514232   -0.479309    0.007947
      5          6           0        2.508963   -1.096384   -0.750890
      6          6           0        3.657147   -0.366054   -1.060768
      7          6           0        3.815088    0.944245   -0.620336
      8          6           0        2.810541    1.566719    0.142456
      9          6           0        1.650589    0.838782    0.450626
     10          7           0        2.929183    2.899835    0.526128
     11         16           0       -0.857457   -1.328216   -0.799198
     12          8           0       -0.267394   -1.799558   -2.049771
     13          8           0       -2.005686   -2.016744   -0.198948
     14          6           0       -1.370997    0.381112   -1.200891
     15         16           0       -2.263933    1.316240    0.080172
     16          8           0       -1.544249    1.152426    1.354903
     17          8           0       -2.476837    2.656498   -0.481588
     18          6           0       -3.849924    0.478594    0.220091
     19          1           0        1.007787   -3.393122    1.851280
     20          1           0        0.834410   -2.594728    3.432206
     21          1           0        2.064975   -2.035247    2.283965
     22          1           0       -0.976561   -1.875186    1.834732
     23          1           0        0.022205   -0.507886    2.320456
     24          1           0        2.368148   -2.114767   -1.090566
     25          1           0        4.443919   -0.827153   -1.650704
     26          1           0        4.715076    1.499828   -0.871958
     27          1           0        0.848746    1.295858    1.022982
     28          1           0        3.875237    3.249837    0.602549
     29          1           0        2.353201    3.180300    1.309307
     30          1           0       -0.471496    0.962441   -1.417573
     31          1           0       -1.994437    0.325960   -2.095790
     32          1           0       -4.394056    0.597587   -0.718647
     33          1           0       -3.668156   -0.572685    0.445338
     34          1           0       -4.380160    0.978403    1.033757
 ---------------------------------------------------------------------

 SCF Done:  E(UB3LYP) =  -1597.70673872     A.U. after   33 cycles
 SCF Done:  E(UB3LYP) =  -1597.70673872     a.u. after    1 cycles

 The electronic state is 2-A.
 Alpha  occ. eigenvalues --  -88.98332 -88.97009 -19.03683 -19.03363 -19.03360
 Alpha  occ. eigenvalues --  -19.03341 -14.26068 -14.22096 -10.14945 -10.12023
 Alpha  occ. eigenvalues --  -10.11922 -10.11878 -10.11411 -10.07978 -10.07867
 Alpha  occ. eigenvalues --  -10.07009 -10.06979 -10.06907  -8.04442  -8.03435
 Alpha  occ. eigenvalues --   -6.00716  -6.00661  -6.00574  -5.99678  -5.99620
 Alpha  occ. eigenvalues --   -5.99541  -1.04040  -1.02675  -0.92947  -0.92329
 Alpha  occ. eigenvalues --   -0.86084  -0.82421  -0.74162  -0.72600  -0.68516
 Alpha  occ. eigenvalues --   -0.67107  -0.65003  -0.63382  -0.57319  -0.54751
 Alpha  occ. eigenvalues --   -0.53243  -0.51301  -0.48377  -0.45913  -0.43117
 Alpha  occ. eigenvalues --   -0.42281  -0.41744  -0.41706  -0.41148  -0.39242
 Alpha  occ. eigenvalues --   -0.38308  -0.37678  -0.37412  -0.36246  -0.35219
 Alpha  occ. eigenvalues --   -0.34528  -0.34437  -0.33627  -0.33129  -0.31628
 Alpha  occ. eigenvalues --   -0.29850  -0.29348  -0.27892  -0.27317  -0.26751
 Alpha  occ. eigenvalues --   -0.26435  -0.25632  -0.24661  -0.24480  -0.23509
 Alpha  occ. eigenvalues --   -0.22815  -0.22203  -0.22071  -0.20673  -0.18215
 Alpha  occ. eigenvalues --   -0.15497  -0.11612   0.03911
 Alpha virt. eigenvalues --    0.05476   0.06335   0.07009   0.07616   0.07968
 Alpha virt. eigenvalues --    0.09101   0.09247   0.09576   0.09928   0.10360
 Alpha virt. eigenvalues --    0.10918   0.11157   0.11420   0.11992   0.12106

  Beta  occ. eigenvalues --  -88.98314 -88.97007 -19.03657 -19.03357 -19.03346
  Beta  occ. eigenvalues --  -19.03329 -14.26061 -14.22048 -10.14901 -10.12034
  Beta  occ. eigenvalues --  -10.11867 -10.11866 -10.11307 -10.07972 -10.07836
  Beta  occ. eigenvalues --  -10.07014 -10.06925 -10.06807  -8.04418  -8.03431
  Beta  occ. eigenvalues --   -6.00700  -6.00638  -6.00554  -5.99677  -5.99618
  Beta  occ. eigenvalues --   -5.99538  -1.03986  -1.02643  -0.92902  -0.92295
  Beta  occ. eigenvalues --   -0.85994  -0.82353  -0.74055  -0.72543  -0.68461
  Beta  occ. eigenvalues --   -0.67029  -0.64856  -0.63268  -0.57253  -0.54642
  Beta  occ. eigenvalues --   -0.53149  -0.51250  -0.48297  -0.45845  -0.43066
  Beta  occ. eigenvalues --   -0.42235  -0.41700  -0.41639  -0.41104  -0.39158
  Beta  occ. eigenvalues --   -0.38276  -0.37611  -0.37378  -0.36210  -0.35170
  Beta  occ. eigenvalues --   -0.34480  -0.34380  -0.33579  -0.33077  -0.31601
  Beta  occ. eigenvalues --   -0.29826  -0.29130  -0.27840  -0.27283  -0.26715
  Beta  occ. eigenvalues --   -0.26399  -0.25589  -0.24629  -0.24452  -0.23467
  Beta  occ. eigenvalues --   -0.22775  -0.22149  -0.21953  -0.20643  -0.18067
  Beta  occ. eigenvalues --   -0.15123  -0.11363
  Beta virt. eigenvalues --    0.06215   0.06742   0.07149   0.07307   0.07787
  Beta virt. eigenvalues --    0.08669   0.09185   0.09540   0.09703   0.10128
  Beta virt. eigenvalues --    0.10571   0.11024   0.11220   0.11592   0.12015

 Mulliken charges and spin densities:
               1          2
     1  C   -0.404725  -0.148886
     2  C   -0.208006  -0.042972
     3  N    0.323242  -0.041249
     4  C   -0.255870   0.045217
     5  C   -0.259880   0.116131
     6  C    0.165988  -0.403597
     7  C    0.209901  -0.177322
     8  C   -0.307602  -0.014411
     9  C   -0.090082  -0.211525
    10  N   -0.283379  -0.026368
    11  S    0.858505  -0.402066
    12  O   -0.091889   0.014497
    13  O   -0.120653  -0.001094
    14  C   -0.972985   0.057616
    15  S    0.185245  -0.082885
    16  O   -0.127878   0.008780
    17  O   -0.069529  -0.003056
    18  C    0.417108  -0.960593
    19  H    0.134768   0.019075
    20  H    0.077197   0.056931
    21  H    0.127754   0.027930
    22  H    0.084649   0.095889
    23  H    0.156870   0.036019
    24  H    0.146619   0.017192
    25  H    0.124648   0.031495
    26  H   -0.335785   0.475791
    27  H    0.272938  -0.102115
    28  H   -0.342738   0.610657
    29  H    0.016359   0.221510
    30  H    0.267672   0.080488
    31  H   -0.138593   0.474114
    32  H   -0.379771   0.601459
    33  H   -0.003352   0.243813
    34  H   -0.176747   0.383534
 Sum of Mulliken charges =  -1.00000   1.00000

 Dipole moment (field-independent basis, Debye):
    X=             -0.2833    Y=             -4.6790    Z=              1.8315  Tot=              5.0327
 Quadrupole moment (field-independent basis, Debye-Ang):
   XX=           -199.8075   YY=           -175.7372   ZZ=           -150.9159
   XY=            -15.5385   XZ=             -6.3059   YZ=             -4.8390

 Summary of Natural Population Analysis:

                                       Natural Population
                Natural  -----------------------------------------------
    Atom  No    Charge         Core      Valence    Rydberg      Total
 -----------------------------------------------------------------------
      C    1   -0.29003      0.99966     2.28581    0.00456     3.29003
      C    2   -0.08369      0.99960     2.07300    0.01109     3.08369
      N    3   -0.37796      0.99966     2.86180    0.01650     3.87796
      C    4    0.08240      0.99946     1.90534    0.01280     2.91760
      C    5   -0.11924      0.99950     2.11099    0.00875     3.11924
      C    6   -0.08846      0.99957     2.07883    0.01005     3.08846
      C    7   -0.10810      0.99952     2.09869    0.00990     3.10810
      C    8    0.08714      0.99950     1.90193    0.01143     2.91286
      C    9   -0.13359      0.99946     2.12447    0.00966     3.13359
      N   10   -0.39356      0.99971     2.88396    0.00988     3.89356
      S   11    1.11996      4.99918     1.77651    0.10435     6.88004
      O   12   -0.45304      0.99990     3.44762    0.00552     4.45304
      O   13   -0.46743      0.99990     3.46175    0.00577     4.46743
      C   14   -0.42014      0.99953     2.40356    0.01704     3.42014
      S   15    1.02300      4.99929     1.88358    0.09413     6.97700
      O   16   -0.46908      0.99991     3.46305    0.00613     4.46908
      O   17   -0.45909      0.99991     3.45326    0.00592     4.45909
      C   18   -0.39533      0.99961     2.38528    0.01045     3.39533
      H   19    0.09886      0.00000     0.40005    0.00109     0.40114
      H   20    0.09821      0.00000     0.40105    0.00074     0.40179
      H   21    0.10332      0.00000     0.39571    0.00097     0.39668
      H   22    0.11124      0.00000     0.38725    0.00151     0.38876
      H   23    0.10031      0.00000     0.39823    0.00146     0.39969
      H   24    0.10795      0.00000     0.39099    0.00105     0.39205
      H   25    0.09781      0.00000     0.40146    0.00073     0.40219
      H   26    0.09983      0.00000     0.39915    0.00101     0.40017
      H   27    0.11273      0.00000     0.38480    0.00248     0.38727
      H   28    0.19018      0.00000     0.30302    0.00680     0.30982
      H   29    0.18610      0.00000     0.31216    0.00174     0.31390
      H   30    0.13837      0.00000     0.36057    0.00106     0.36163
      H   31    0.13146      0.00000     0.36709    0.00144     0.36854
      H   32    0.11886      0.00000     0.37860    0.00254     0.38114
      H   33    0.13115      0.00000     0.36738    0.00146     0.36885
      H   34    0.11986      0.00000     0.37898    0.00116     0.38014
 =======================================================================
   * Total *   -0.00000     25.99287    50.62593    0.38120    77.00000

 Normal termination of Gaussian 16 at Fri Dec 11 22:21:16 2020.
