 Gaussian 16, Revision A.03,

 -----------------------------------------------------------
 # opt freq B3LYP/6-31G(d) empiricaldispersion=gd3bj scf=xqc
 -----------------------------------------------------------

 ------------------------------
 CID_20487573_JID_5021_neutraal
 ------------------------------
 Symbolic Z-matrix:
 Charge =  0 Multiplicity = 1

 SCF Done:  E(RB3LYP) =  -699.966332564     A.U. after   16 cycles
 SCF Done:  E(RB3LYP) =  -699.974165448     A.U. after   14 cycles
 SCF Done:  E(RB3LYP) =  -699.979925856     A.U. after   15 cycles
 SCF Done:  E(RB3LYP) =  -699.982057845     A.U. after   14 cycles
 SCF Done:  E(RB3LYP) =  -699.982604296     A.U. after   14 cycles
 SCF Done:  E(RB3LYP) =  -699.982786181     A.U. after   14 cycles
 SCF Done:  E(RB3LYP) =  -699.983405202     A.U. after   13 cycles
 SCF Done:  E(RB3LYP) =  -699.983601287     A.U. after   13 cycles
 SCF Done:  E(RB3LYP) =  -699.983462720     A.U. after   14 cycles
 SCF Done:  E(RB3LYP) =  -699.983720652     A.U. after   12 cycles
 SCF Done:  E(RB3LYP) =  -699.983779436     A.U. after   11 cycles
 SCF Done:  E(RB3LYP) =  -699.983793025     A.U. after   11 cycles
 SCF Done:  E(RB3LYP) =  -699.983796675     A.U. after   11 cycles
 SCF Done:  E(RB3LYP) =  -699.983797911     A.U. after    9 cycles
 SCF Done:  E(RB3LYP) =  -699.983798330     A.U. after    9 cycles
 SCF Done:  E(RB3LYP) =  -699.983798414     A.U. after    8 cycles
 Optimization completed.
    -- Stationary point found.
 Normal termination of Gaussian 16 at Thu Dec 10 14:45:02 2020.

 --------------------------------------------------------------------
 #N Geom=AllCheck Guess=TCheck SCRF=Check GenChk RB3LYP/6-31G(d) Freq
 --------------------------------------------------------------------

 Structure from the checkpoint file:  "JID_5021.chk"
 ------------------------------
 CID_20487573_JID_5021_neutraal
 ------------------------------
 Charge =  0 Multiplicity = 1

 SCF Done:  E(RB3LYP) =  -699.983798414     A.U. after    1 cycles

  Exact polarizability: 212.489  -2.664 144.659  -5.619   0.523  49.575
 Approx polarizability: 315.063 -19.957 303.695 -14.986  -3.856  82.014

                      1                      2                      3
                      A                      A                      A
 Frequencies --     23.1575                50.9320                95.3329
 Red. masses --      7.3147                 6.8034                 8.3708
 Frc consts  --      0.0023                 0.0104                 0.0448
 IR Inten    --      0.5125                 2.6344                 3.5557

                      4                      5                      6
                      A                      A                      A
 Frequencies --    125.1092               163.7549               224.5992
 Red. masses --      5.9229                10.7561                 6.2359
 Frc consts  --      0.0546                 0.1699                 0.1853
 IR Inten    --      5.9739                 9.3107                 2.2187

                      7                      8                      9
                      A                      A                      A
 Frequencies --    256.0368               260.1065               285.0838
 Red. masses --      6.6047                 5.8702                 7.2777
 Frc consts  --      0.2551                 0.2340                 0.3485
 IR Inten    --      2.2067                 4.4723                10.8730

                     10                     11                     12
                      A                      A                      A
 Frequencies --    344.7513               393.8210               416.4889
 Red. masses --      1.1134                 6.4372                 5.3258
 Frc consts  --      0.0780                 0.5882                 0.5443
 IR Inten    --    163.2129                14.6711                 5.3039

                     13                     14                     15
                      A                      A                      A
 Frequencies --    446.9421               522.3157               540.2473
 Red. masses --      4.1529                 3.8310                 3.6539
 Frc consts  --      0.4888                 0.6158                 0.6283
 IR Inten    --      3.5254                 8.6806                 6.9338

                     16                     17                     18
                      A                      A                      A
 Frequencies --    545.0597               575.7767               638.9705
 Red. masses --      6.3868                 5.3709                 1.8417
 Frc consts  --      1.1179                 1.0491                 0.4430
 IR Inten    --      0.7114                 2.2134                14.9918

                     19                     20                     21
                      A                      A                      A
 Frequencies --    654.3746               663.1819               713.5237
 Red. masses --      2.7238                 3.0648                 3.9378
 Frc consts  --      0.6872                 0.7942                 1.1812
 IR Inten    --     26.2193                32.7204                 4.2361

                     22                     23                     24
                      A                      A                      A
 Frequencies --    753.3257               764.8122               775.7698
 Red. masses --      4.4240                 5.1846                 1.7299
 Frc consts  --      1.4792                 1.7868                 0.6134
 IR Inten    --      1.9028                10.5058                45.1092

                     25                     26                     27
                      A                      A                      A
 Frequencies --    813.0122               836.3509               851.5301
 Red. masses --      4.7786                 8.3419                 5.3533
 Frc consts  --      1.8610                 3.4379                 2.2870
 IR Inten    --      4.4973                11.8643                 9.6941

                     28                     29                     30
                      A                      A                      A
 Frequencies --    859.1947               879.9167               942.5434
 Red. masses --      1.8632                 6.3725                 5.4894
 Frc consts  --      0.8104                 2.9070                 2.8733
 IR Inten    --      4.6544                 1.7978                71.3697

                     31                     32                     33
                      A                      A                      A
 Frequencies --    964.5832               975.8891               987.9245
 Red. masses --      1.6514                 1.3288                 1.2831
 Frc consts  --      0.9053                 0.7456                 0.7378
 IR Inten    --     15.8957                 1.1065                 0.1312

                     34                     35                     36
                      A                      A                      A
 Frequencies --   1020.4029              1060.6187              1094.6801
 Red. masses --      4.3563                 2.2923                 1.7718
 Frc consts  --      2.6724                 1.5193                 1.2510
 IR Inten    --    180.0854                39.4791                 2.6273

                     37                     38                     39
                      A                      A                      A
 Frequencies --   1169.2882              1189.4605              1207.1033
 Red. masses --      2.6826                 1.5602                 1.1113
 Frc consts  --      2.1610                 1.3006                 0.9540
 IR Inten    --    168.0015                64.2786                 9.4341

                     40                     41                     42
                      A                      A                      A
 Frequencies --   1288.2404              1297.6410              1335.9964
 Red. masses --      1.5464                 2.1733                 3.4216
 Frc consts  --      1.5120                 2.1562                 3.5983
 IR Inten    --     24.4931                42.8639                35.0765

                     43                     44                     45
                      A                      A                      A
 Frequencies --   1381.6617              1419.0919              1506.9010
 Red. masses --      2.1981                 4.4545                 2.6799
 Frc consts  --      2.4723                 5.2853                 3.5854
 IR Inten    --     33.7961                 2.0295                68.5592

                     46                     47                     48
                      A                      A                      A
 Frequencies --   1538.2625              1605.5250              1619.1658
 Red. masses --      2.7154                 5.6933                 9.8663
 Frc consts  --      3.7857                 8.6466                15.2401
 IR Inten    --     87.3981               131.9914               141.5804

                     49                     50                     51
                      A                      A                      A
 Frequencies --   1660.1563              1679.4446              1694.8008
 Red. masses --      8.3082                 6.0864                 8.8666
 Frc consts  --     13.4914                10.1145                15.0052
 IR Inten    --    228.4444                37.3868                27.3290

                     52                     53                     54
                      A                      A                      A
 Frequencies --   1722.8515              1897.5496              3178.8381
 Red. masses --      1.2568                12.5393                 1.0873
 Frc consts  --      2.1979                26.6016                 6.4735
 IR Inten    --    128.1275               253.5523                 8.3273

                     55                     56                     57
                      A                      A                      A
 Frequencies --   3199.1379              3216.2101              3234.0807
 Red. masses --      1.0916                 1.0918                 1.0939
 Frc consts  --      6.5822                 6.6539                 6.7409
 IR Inten    --     20.1551                12.5879                 7.6965

                     58                     59                     60
                      A                      A                      A
 Frequencies --   3253.5021              3429.6705              3673.9128
 Red. masses --      1.0975                 1.0634                 1.0897
 Frc consts  --      6.8450                 7.3698                 8.6660
 IR Inten    --      0.4967               256.1975                75.4726

 - Thermochemistry -
 -------------------
 Temperature   298.150 Kelvin.  Pressure   1.00000 Atm.
 Atom     1 has atomic number  6 and mass  12.00000

 Molecular mass:   201.05383 amu.
 Principal axes and moments of inertia in atomic units:
                           1         2         3
     Eigenvalues --  1250.872594862.556445990.40548
           X            0.99997   0.00796  -0.00101
           Y           -0.00796   0.99995   0.00527
           Z            0.00105  -0.00527   0.99999
 This molecule is an asymmetric top.
 Rotational symmetry number  1.
 Warning -- assumption of classical behavior for rotation
           may cause significant error
 Rotational temperatures (Kelvin)      0.06924     0.01781     0.01446
 Rotational constants (GHZ):           1.44279     0.37115     0.30127
 Zero-point vibrational energy     418206.2 (Joules/Mol)
                                   99.95368 (Kcal/Mol)
 Warning -- explicit consideration of  17 degrees of freedom as
           vibrations may cause significant error
 Vibrational temperatures:     33.32    73.28   137.16   180.00   235.61
          (Kelvin)            323.15   368.38   374.24   410.17   496.02
                              566.62   599.23   643.05   751.50   777.30
                              784.22   828.41   919.34   941.50   954.17
                             1026.60  1083.87  1100.39  1116.16  1169.74
                             1203.32  1225.16  1236.19  1266.00  1356.11
                             1387.82  1404.09  1421.40  1468.13  1525.99
                             1575.00  1682.34  1711.37  1736.75  1853.49
                             1867.02  1922.20  1987.90  2041.76  2168.09
                             2213.22  2309.99  2329.62  2388.59  2416.35
                             2438.44  2478.80  2730.15  4573.64  4602.85
                             4627.41  4653.12  4681.06  4934.53  5285.94

 Zero-point correction=                           0.159286 (Hartree/Particle)
 Thermal correction to Energy=                    0.171307
 Thermal correction to Enthalpy=                  0.172252
 Thermal correction to Gibbs Free Energy=         0.119623
 Sum of electronic and zero-point Energies=           -699.824512
 Sum of electronic and thermal Energies=              -699.812491
 Sum of electronic and thermal Enthalpies=            -699.811547
 Sum of electronic and thermal Free Energies=         -699.864176

                     E (Thermal)             CV                S
                      KCal/Mol        Cal/Mol-Kelvin    Cal/Mol-Kelvin
 Total                  107.497             46.053            110.766
 Electronic               0.000              0.000              0.000
 Translational            0.889              2.981             41.800
 Rotational               0.889              2.981             31.966
 Vibrational            105.720             40.092             37.001
 Vibration     1          0.593              1.985              6.343
 Vibration     2          0.595              1.977              4.781
 Vibration     3          0.603              1.953              3.548
 Vibration     4          0.610              1.928              3.020
 Vibration     5          0.623              1.887              2.506
 Vibration     6          0.649              1.804              1.922
 Vibration     7          0.666              1.753              1.689
 Vibration     8          0.668              1.746              1.661
 Vibration     9          0.683              1.701              1.503
 Vibration    10          0.723              1.586              1.190
 Vibration    11          0.761              1.483              0.986
 Vibration    12          0.780              1.434              0.904
 Vibration    13          0.806              1.368              0.805
 Vibration    14          0.877              1.201              0.605
 Vibration    15          0.895              1.161              0.565
 Vibration    16          0.900              1.151              0.555
 Vibration    17          0.932              1.084              0.493

                           ! Non-Optimized Parameters !
 Normal termination of Gaussian 16 at Thu Dec 10 14:50:46 2020.

 ----------------------------------------------------------------------
 # B3LYP/6-311++G(d,p) empiricaldispersion=gd3bj scf=xqc pop=npa geom=c
 heck
 ----------------------------------------------------------------------

 --------------------------------------
 CID_20487573_JID_5021_Energie_neutraal
 --------------------------------------
 Structure from the checkpoint file:  "JID_5021.chk"
 Charge =  0 Multiplicity = 1

 SCF Done:  E(RB3LYP) =  -700.178245278     A.U. after   19 cycles
 Normal termination of Gaussian 16 at Thu Dec 10 14:53:16 2020.

 ----------------------------------------------------------------------
 # B3LYP/6-311++G(d,p) empiricaldispersion=gd3bj scf=xqc pop=npa geom=c
 heck
 ----------------------------------------------------------------------

 ------------------------------------
 CID_20487573_JID_5021_Energie_kation
 ------------------------------------
 Structure from the checkpoint file:  "JID_5021.chk"
 Charge =  1 Multiplicity = 2

 SCF Done:  E(UB3LYP) =  -699.878743835     A.U. after   27 cycles
 Normal termination of Gaussian 16 at Thu Dec 10 14:58:13 2020.
 Gaussian 16:  ES64L-G16RevA.03 25-Dec-2016

 ----------------------------------------------------------------------
 # B3LYP/6-311++G(d,p) empiricaldispersion=gd3bj scf=xqc pop=npa geom=c
 heck
 ----------------------------------------------------------------------

 -----------------------------------
 CID_20487573_JID_5021_Energie_anion
 -----------------------------------
 Structure from the checkpoint file:  "JID_5021.chk"
 Charge = -1 Multiplicity = 2

                         Standard orientation:
 ---------------------------------------------------------------------
 Center     Atomic      Atomic             Coordinates (Angstroms)
 Number     Number       Type             X           Y           Z
 ---------------------------------------------------------------------
      1          6           0       -3.714016    0.812378    0.117704
      2          6           0       -3.943362   -0.570544    0.251680
      3          6           0       -2.898011   -1.464279    0.189858
      4          6           0       -1.555477   -1.040703   -0.009688
      5          6           0       -1.311467    0.368477   -0.112584
      6          6           0       -2.422689    1.251632   -0.063155
      7          6           0       -0.023642    1.055095   -0.245220
      8          8           0        0.068959    2.258049   -0.520581
      9          6           0        1.334571    0.466313   -0.008943
     10          7           0        1.811995   -0.676163   -0.348900
     11          6           0        3.239553   -0.599360   -0.014056
     12          8           0        4.009201   -1.502671   -0.156575
     13          7           0        3.565647    0.714896    0.529541
     14          6           0        2.452962    1.344743    0.522597
     15          7           0       -0.603882   -2.001851   -0.103012
     16          1           0       -4.537136    1.517249    0.165438
     17          1           0       -4.952874   -0.943400    0.402015
     18          1           0       -3.086932   -2.531113    0.279185
     19          1           0       -2.206310    2.309273   -0.160426
     20          1           0        2.325125    2.367911    0.857307
     21          1           0        0.359866   -1.796199   -0.359556
     22          1           0       -0.893870   -2.967428   -0.079278
 ---------------------------------------------------------------------

 SCF Done:  E(UB3LYP) =  -700.267326644     A.U. after   23 cycles

 The electronic state is 2-A.
 Alpha  occ. eigenvalues --  -18.96793 -18.95860 -14.20574 -14.16183 -14.15862
 Alpha  occ. eigenvalues --  -10.13022 -10.12459 -10.12457 -10.08098 -10.07136
 Alpha  occ. eigenvalues --  -10.07042 -10.06955 -10.06886 -10.06784 -10.06382
 Alpha  occ. eigenvalues --   -0.91565  -0.90506  -0.82844  -0.81983  -0.73797
 Alpha  occ. eigenvalues --   -0.72925  -0.65578  -0.62822  -0.56589  -0.52765
 Alpha  occ. eigenvalues --   -0.50646  -0.47046  -0.43594  -0.42309  -0.40931
 Alpha  occ. eigenvalues --   -0.39832  -0.36692  -0.34535  -0.33479  -0.32736
 Alpha  occ. eigenvalues --   -0.32378  -0.31100  -0.29549  -0.29084  -0.28020
 Alpha  occ. eigenvalues --   -0.26463  -0.25805  -0.24592  -0.21683  -0.20603
 Alpha  occ. eigenvalues --   -0.16140  -0.16119  -0.15634  -0.15154  -0.13095
 Alpha  occ. eigenvalues --   -0.11837  -0.10264  -0.02316
 Alpha virt. eigenvalues --    0.05414   0.06834   0.08320   0.09686   0.10015
 Alpha virt. eigenvalues --    0.11331   0.12096   0.12866   0.13448   0.14360
 Alpha virt. eigenvalues --    0.14565   0.15390   0.16379   0.17250   0.17636

  Beta  occ. eigenvalues --  -18.96406 -18.95324 -14.20559 -14.16065 -14.15524
  Beta  occ. eigenvalues --  -10.12945 -10.12435 -10.12409 -10.08063 -10.07138
  Beta  occ. eigenvalues --  -10.07069 -10.06777 -10.06748 -10.06627 -10.06395
  Beta  occ. eigenvalues --   -0.90728  -0.89833  -0.82341  -0.81790  -0.73749
  Beta  occ. eigenvalues --   -0.72408  -0.65497  -0.62778  -0.55753  -0.52427
  Beta  occ. eigenvalues --   -0.50591  -0.46683  -0.43439  -0.42152  -0.40654
  Beta  occ. eigenvalues --   -0.39500  -0.36564  -0.34267  -0.33309  -0.32580
  Beta  occ. eigenvalues --   -0.32221  -0.30137  -0.28814  -0.28442  -0.27552
  Beta  occ. eigenvalues --   -0.26370  -0.24729  -0.24364  -0.21475  -0.18282
  Beta  occ. eigenvalues --   -0.15613  -0.15212  -0.14815  -0.14419  -0.12553
  Beta  occ. eigenvalues --   -0.11408  -0.10024
  Beta virt. eigenvalues --    0.04101   0.06824   0.06846   0.08319   0.09688
  Beta virt. eigenvalues --    0.10173   0.11340   0.12108   0.13451   0.13840
  Beta virt. eigenvalues --    0.14387   0.14598   0.15438   0.16479   0.17273

 Mulliken charges and spin densities:
               1          2
     1  C   -0.460128  -0.016220
     2  C   -0.288626   0.028480
     3  C   -0.535974   0.002206
     4  C   -1.949592   0.003561
     5  C    2.516812  -0.038531
     6  C    0.487355   0.032111
     7  C   -0.823621  -0.042520
     8  O   -0.278003   0.134979
     9  C    0.346195   0.250825
    10  N   -0.292069   0.180401
    11  C    0.154926   0.070594
    12  O   -0.387227   0.191005
    13  N   -0.184452   0.055464
    14  C   -0.310055   0.158200
    15  N   -0.329858   0.006269
    16  H    0.128293   0.000631
    17  H    0.127287  -0.001961
    18  H    0.107628   0.000029
    19  H    0.171467  -0.001599
    20  H    0.154901  -0.010968
    21  H    0.415759  -0.001973
    22  H    0.228980  -0.000981
 Sum of Mulliken charges =  -1.00000   1.00000

 Dipole moment (field-independent basis, Debye):
    X=             -9.5695    Y=             -1.5427    Z=              0.7331  Tot=              9.7207
 Quadrupole moment (field-independent basis, Debye-Ang):
   XX=           -143.6336   YY=            -98.0166   ZZ=            -94.1272
   XY=              9.8031   XZ=             -1.7475   YZ=              1.1252

 Summary of Natural Population Analysis:

                                       Natural Population
                Natural  -----------------------------------------------
    Atom  No    Charge         Core      Valence    Rydberg      Total
 -----------------------------------------------------------------------
      C    1   -0.14428      0.99956     2.13474    0.00998     3.14428
      C    2   -0.08213      0.99958     2.07342    0.00914     3.08213
      C    3   -0.13578      0.99954     2.12756    0.00868     3.13578
      C    4    0.11606      0.99951     1.87417    0.01026     2.88394
      C    5   -0.10232      0.99946     2.09430    0.00855     3.10232
      C    6   -0.05834      0.99956     2.04963    0.00916     3.05834
      C    7    0.24732      0.99955     1.73399    0.01914     2.75268
      O    8   -0.24946      0.99989     3.24381    0.00576     4.24946
      C    9    0.13197      0.99956     1.85291    0.01556     2.86803
      N   10   -0.23983      0.99962     2.72734    0.01287     3.73983
      C   11    0.39503      0.99975     1.57784    0.02737     2.60497
      O   12   -0.20868      0.99985     3.20169    0.00714     4.20868
      N   13   -0.24994      0.99970     2.73876    0.01149     3.74994
      C   14    0.08850      0.99963     1.89609    0.01578     2.91150
      N   15   -0.38716      0.99969     2.87988    0.00759     3.88716
      H   16    0.09539      0.00000     0.40360    0.00101     0.40461
      H   17    0.09317      0.00000     0.40583    0.00100     0.40683
      H   18    0.09171      0.00000     0.40669    0.00160     0.40829
      H   19    0.11154      0.00000     0.38707    0.00139     0.38846
      H   20    0.08826      0.00000     0.41044    0.00130     0.41174
      H   21    0.21930      0.00000     0.27872    0.00198     0.28070
      H   22    0.17965      0.00000     0.31871    0.00164     0.32035
 =======================================================================
   * Total *   -0.00000     14.99446    36.81717    0.18837    52.00000

 Normal termination of Gaussian 16 at Thu Dec 10 15:02:36 2020.
