 Gaussian 16, Revision A.03,

 -----------------------------------------------------------
 # opt freq B3LYP/6-31G(d) empiricaldispersion=gd3bj scf=xqc
 -----------------------------------------------------------

 -------------------------------
 CID_143258050_JID_2175_neutraal
 -------------------------------
 Symbolic Z-matrix:
 Charge =  0 Multiplicity = 1

 SCF Done:  E(RB3LYP) =  -465.746802274     A.U. after   14 cycles
 SCF Done:  E(RB3LYP) =  -465.749081897     A.U. after   12 cycles
 SCF Done:  E(RB3LYP) =  -465.749180588     A.U. after   10 cycles
 SCF Done:  E(RB3LYP) =  -465.749188601     A.U. after    9 cycles
 SCF Done:  E(RB3LYP) =  -465.749189364     A.U. after    8 cycles
 SCF Done:  E(RB3LYP) =  -465.749190750     A.U. after    9 cycles
 SCF Done:  E(RB3LYP) =  -465.749191843     A.U. after    9 cycles
 SCF Done:  E(RB3LYP) =  -465.749192786     A.U. after    9 cycles
 SCF Done:  E(RB3LYP) =  -465.749193131     A.U. after    8 cycles
 SCF Done:  E(RB3LYP) =  -465.749193428     A.U. after    8 cycles
 SCF Done:  E(RB3LYP) =  -465.749193873     A.U. after    9 cycles
 SCF Done:  E(RB3LYP) =  -465.749194163     A.U. after    8 cycles
 SCF Done:  E(RB3LYP) =  -465.749194215     A.U. after    7 cycles
 Optimization completed.
    -- Stationary point found.
 Normal termination of Gaussian 16 at Wed Dec  9 16:52:22 2020.

 --------------------------------------------------------------------
 #N Geom=AllCheck Guess=TCheck SCRF=Check GenChk RB3LYP/6-31G(d) Freq
 --------------------------------------------------------------------

 Structure from the checkpoint file:  "JID_2175.chk"
 -------------------------------
 CID_143258050_JID_2175_neutraal
 -------------------------------
 Charge =  0 Multiplicity = 1

 SCF Done:  E(RB3LYP) =  -465.749194215     A.U. after    1 cycles

  Exact polarizability: 175.681  -2.071 121.442   6.119   2.603  65.050
 Approx polarizability: 230.822  -3.808 200.770  12.144   5.483  97.968

                      1                      2                      3
                      A                      A                      A
 Frequencies --     19.0436                40.4548               118.2838
 Red. masses --      3.3566                 2.5922                 3.1454
 Frc consts  --      0.0007                 0.0025                 0.0259
 IR Inten    --      0.0669                 0.1010                 0.4422

                      4                      5                      6
                      A                      A                      A
 Frequencies --    154.8806               191.7823               228.5554
 Red. masses --      1.9811                 2.1464                 3.0284
 Frc consts  --      0.0280                 0.0465                 0.0932
 IR Inten    --      0.0625                 0.3119                 4.1875

                      7                      8                      9
                      A                      A                      A
 Frequencies --    251.7005               327.9247               373.4474
 Red. masses --      1.2741                 3.7904                 2.6749
 Frc consts  --      0.0476                 0.2402                 0.2198
 IR Inten    --      0.0393                 0.9241                 2.3665

                     10                     11                     12
                      A                      A                      A
 Frequencies --    426.9555               440.7947               493.7343
 Red. masses --      2.7481                 3.1488                 2.3695
 Frc consts  --      0.2952                 0.3605                 0.3403
 IR Inten    --      3.2177                 0.1171                 0.9654

                     13                     14                     15
                      A                      A                      A
 Frequencies --    504.9015               556.8882               600.7879
 Red. masses --      3.1229                 3.7207                 6.2974
 Frc consts  --      0.4691                 0.6799                 1.3392
 IR Inten    --      0.0668                 0.0828                 0.2420

                     16                     17                     18
                      A                      A                      A
 Frequencies --    662.2547               714.1361               757.6096
 Red. masses --      4.0642                 3.3081                 1.1912
 Frc consts  --      1.0502                 0.9940                 0.4028
 IR Inten    --      3.9391                 0.1932                42.7221

                     19                     20                     21
                      A                      A                      A
 Frequencies --    780.6668               818.8673               840.2858
 Red. masses --      1.7409                 2.5552                 2.4038
 Frc consts  --      0.6251                 1.0095                 1.0000
 IR Inten    --      1.1229                 1.0638                 1.6739

                     22                     23                     24
                      A                      A                      A
 Frequencies --    858.7817               866.6280               881.8900
 Red. masses --      1.3768                 4.4465                 1.2979
 Frc consts  --      0.5982                 1.9676                 0.5948
 IR Inten    --      4.1901                 0.5979                 1.4803

                     25                     26                     27
                      A                      A                      A
 Frequencies --    926.3886               930.5324               972.0799
 Red. masses --      1.9639                 1.3612                 1.6326
 Frc consts  --      0.9930                 0.6945                 0.9089
 IR Inten    --      6.5652                 0.0310                 1.5874

                     28                     29                     30
                      A                      A                      A
 Frequencies --    980.6249              1002.1870              1039.3802
 Red. masses --      1.2690                 1.9788                 2.1032
 Frc consts  --      0.7190                 1.1710                 1.3387
 IR Inten    --      0.0626                 2.3150                 6.1242

                     31                     32                     33
                      A                      A                      A
 Frequencies --   1058.8298              1094.1023              1111.2418
 Red. masses --      2.2151                 2.0720                 2.1993
 Frc consts  --      1.4632                 1.4614                 1.6001
 IR Inten    --      2.8243                 2.3151                 1.1485

                     34                     35                     36
                      A                      A                      A
 Frequencies --   1129.2345              1178.2532              1191.5853
 Red. masses --      2.1333                 1.1165                 1.1133
 Frc consts  --      1.6028                 0.9132                 0.9313
 IR Inten    --      0.8935                 0.1154                 0.0085

                     37                     38                     39
                      A                      A                      A
 Frequencies --   1194.9689              1196.1810              1217.0849
 Red. masses --      2.0715                 1.1504                 2.5567
 Frc consts  --      1.7428                 0.9699                 2.2314
 IR Inten    --      1.6617                 0.4748                 2.2935

                     40                     41                     42
                      A                      A                      A
 Frequencies --   1242.2981              1254.8835              1296.5067
 Red. masses --      1.6873                 1.5067                 2.6135
 Frc consts  --      1.5342                 1.3980                 2.5883
 IR Inten    --     15.8208                 1.2389                 4.6801

                     43                     44                     45
                      A                      A                      A
 Frequencies --   1307.5174              1342.1765              1351.9177
 Red. masses --      1.2520                 1.5005                 1.4831
 Frc consts  --      1.2611                 1.5926                 1.5971
 IR Inten    --      0.9541                 0.3646                11.0178

                     46                     47                     48
                      A                      A                      A
 Frequencies --   1376.2945              1403.2871              1435.7999
 Red. masses --      3.4009                 1.5769                 1.2251
 Frc consts  --      3.7954                 1.8295                 1.4880
 IR Inten    --      8.8944                 2.2495                 1.0204

                     49                     50                     51
                      A                      A                      A
 Frequencies --   1497.0900              1501.8713              1510.8365
 Red. masses --      1.1244                 1.1494                 2.2256
 Frc consts  --      1.4848                 1.5276                 2.9932
 IR Inten    --      0.5470                 2.4182                 5.0218

                     52                     53                     54
                      A                      A                      A
 Frequencies --   1516.0008              1527.6259              1536.2295
 Red. masses --      1.0823                 1.0411                 1.7330
 Frc consts  --      1.4655                 1.4314                 2.4097
 IR Inten    --      1.6543                 4.8096                15.3088

                     55                     56                     57
                      A                      A                      A
 Frequencies --   1537.8994              1646.7804              1670.7469
 Red. masses --      1.2750                 6.1380                 6.4017
 Frc consts  --      1.7768                 9.8073                10.5285
 IR Inten    --      9.7191                 3.4673                 0.1892

                     58                     59                     60
                      A                      A                      A
 Frequencies --   1770.2453              3021.6858              3022.8076
 Red. masses --      8.3838                 1.0624                 1.0669
 Frc consts  --     15.4796                 5.7152                 5.7439
 IR Inten    --      0.5404                19.1695                53.5878

                     61                     62                     63
                      A                      A                      A
 Frequencies --   3025.2204              3045.8620              3046.8657
 Red. masses --      1.0615                 1.0377                 1.0978
 Frc consts  --      5.7237                 5.6720                 6.0045
 IR Inten    --     13.7348                30.1205                24.0297

                     64                     65                     66
                      A                      A                      A
 Frequencies --   3049.9149              3081.3666              3113.5030
 Red. masses --      1.1015                 1.0926                 1.1015
 Frc consts  --      6.0366                 6.1120                 6.2913
 IR Inten    --     24.0233                 6.2694                32.3773

                     67                     68                     69
                      A                      A                      A
 Frequencies --   3119.2498              3129.6571              3175.6670
 Red. masses --      1.1028                 1.0896                 1.0855
 Frc consts  --      6.3218                 6.2879                 6.4499
 IR Inten    --     39.9437                46.3455                 7.1254

                     70                     71                     72
                      A                      A                      A
 Frequencies --   3180.9063              3192.7561              3206.5148
 Red. masses --      1.0888                 1.0926                 1.0971
 Frc consts  --      6.4906                 6.5622                 6.6461
 IR Inten    --      2.0661                36.2319                34.7528

 - Thermochemistry -
 -------------------
 Temperature   298.150 Kelvin.  Pressure   1.00000 Atm.
 Atom     1 has atomic number  6 and mass  12.00000

 Molecular mass:   158.10955 amu.
 Principal axes and moments of inertia in atomic units:
                           1         2         3
     Eigenvalues --   653.118403933.968634411.20761
           X            0.99998   0.00497  -0.00368
           Y           -0.00496   0.99998   0.00434
           Z            0.00371  -0.00432   0.99998
 This molecule is an asymmetric top.
 Rotational symmetry number  1.
 Warning -- assumption of classical behavior for rotation
           may cause significant error
 Rotational temperatures (Kelvin)      0.13262     0.02202     0.01963
 Rotational constants (GHZ):           2.76327     0.45876     0.40913
 Zero-point vibrational energy     593777.9 (Joules/Mol)
                                  141.91633 (Kcal/Mol)
 Warning -- explicit consideration of  15 degrees of freedom as
           vibrations may cause significant error
 Vibrational temperatures:     27.40    58.21   170.18   222.84   275.93
          (Kelvin)            328.84   362.14   471.81   537.31   614.29
                              634.21   710.37   726.44   801.24   864.40
                              952.84  1027.48  1090.03  1123.21  1178.17
                             1208.98  1235.60  1246.88  1268.84  1332.87
                             1338.83  1398.61  1410.90  1441.92  1495.44
                             1523.42  1574.17  1598.83  1624.72  1695.24
                             1714.43  1719.29  1721.04  1751.11  1787.39
                             1805.50  1865.38  1881.23  1931.09  1945.11
                             1980.18  2019.02  2065.80  2153.98  2160.86
                             2173.76  2181.19  2197.91  2210.29  2212.69
                             2369.35  2403.83  2546.99  4347.53  4349.15
                             4352.62  4382.32  4383.76  4388.15  4433.40
                             4479.64  4487.90  4502.88  4569.08  4576.61
                             4593.66  4613.46

 Zero-point correction=                           0.226158 (Hartree/Particle)
 Thermal correction to Energy=                    0.237025
 Thermal correction to Enthalpy=                  0.237969
 Thermal correction to Gibbs Free Energy=         0.188032
 Sum of electronic and zero-point Energies=           -465.523036
 Sum of electronic and thermal Energies=              -465.512169
 Sum of electronic and thermal Enthalpies=            -465.511225
 Sum of electronic and thermal Free Energies=         -465.561162

                     E (Thermal)             CV                S
                      KCal/Mol        Cal/Mol-Kelvin    Cal/Mol-Kelvin
 Total                  148.735             42.145            105.102
 Electronic               0.000              0.000              0.000
 Translational            0.889              2.981             41.084
 Rotational               0.889              2.981             30.806
 Vibrational            146.958             36.183             33.213
 Vibration     1          0.593              1.986              6.732
 Vibration     2          0.594              1.981              5.237
 Vibration     3          0.608              1.934              3.128
 Vibration     4          0.620              1.897              2.611
 Vibration     5          0.634              1.851              2.211
 Vibration     6          0.651              1.797              1.890
 Vibration     7          0.664              1.760              1.719
 Vibration     8          0.711              1.620              1.270
 Vibration     9          0.745              1.527              1.066
 Vibration    10          0.789              1.412              0.869
 Vibration    11          0.801              1.381              0.824
 Vibration    12          0.849              1.264              0.674
 Vibration    13          0.860              1.239              0.646
 Vibration    14          0.912              1.125              0.530
 Vibration    15          0.959              1.030              0.448

 Optimization completed.
    -- Stationary point found.
 Normal termination of Gaussian 16 at Wed Dec  9 16:57:51 2020.

 ----------------------------------------------------------------------
 # B3LYP/6-311++G(d,p) empiricaldispersion=gd3bj scf=xqc pop=npa geom=c
 heck
 ----------------------------------------------------------------------

 ---------------------------------------
 CID_143258050_JID_2175_Energie_neutraal
 ---------------------------------------
 Structure from the checkpoint file:  "JID_2175.chk"
 Charge =  0 Multiplicity = 1

 SCF Done:  E(RB3LYP) =  -465.868390908     A.U. after   14 cycles
 Normal termination of Gaussian 16 at Wed Dec  9 17:00:22 2020.

 ----------------------------------------------------------------------
 # B3LYP/6-311++G(d,p) empiricaldispersion=gd3bj scf=xqc pop=npa geom=c
 heck
 ----------------------------------------------------------------------

 -------------------------------------
 CID_143258050_JID_2175_Energie_kation
 -------------------------------------
 Structure from the checkpoint file:  "JID_2175.chk"
 Charge =  1 Multiplicity = 2

 SCF Done:  E(UB3LYP) =  -465.575503579     A.U. after   20 cycles
 Normal termination of Gaussian 16 at Wed Dec  9 17:06:34 2020.
 Gaussian 16:  ES64L-G16RevA.03 25-Dec-2016

 ----------------------------------------------------------------------
 # B3LYP/6-311++G(d,p) empiricaldispersion=gd3bj scf=xqc pop=npa geom=c
 heck
 ----------------------------------------------------------------------

 ------------------------------------
 CID_143258050_JID_2175_Energie_anion
 ------------------------------------
 Structure from the checkpoint file:  "JID_2175.chk"
 Charge = -1 Multiplicity = 2

                         Standard orientation:
 ---------------------------------------------------------------------
 Center     Atomic      Atomic             Coordinates (Angstroms)
 Number     Number       Type             X           Y           Z
 ---------------------------------------------------------------------
      1          6           0       -4.418012   -0.381694    0.810284
      2          6           0       -3.498710   -0.363649   -0.422149
      3          6           0       -2.419361    0.677336   -0.311895
      4          6           0       -1.107386    0.443852   -0.247269
      5          6           0       -0.438758   -0.929078   -0.290492
      6          6           0        1.030219   -0.624245   -0.105780
      7          6           0        2.095367   -1.519814   -0.035961
      8          6           0        3.390663   -1.027325    0.138232
      9          6           0        3.615358    0.348983    0.240868
     10          6           0        2.547010    1.245818    0.170155
     11          6           0        1.255050    0.753473   -0.003116
     12          6           0       -0.038605    1.527187   -0.109100
     13          1           0       -3.849910   -0.625395    1.714808
     14          1           0       -5.218525   -1.121687    0.697718
     15          1           0       -4.884940    0.597991    0.966310
     16          1           0       -3.056698   -1.356201   -0.565064
     17          1           0       -4.108580   -0.165142   -1.315876
     18          1           0       -2.766141    1.711150   -0.255774
     19          1           0       -0.820045   -1.595280    0.495604
     20          1           0       -0.626993   -1.444418   -1.243318
     21          1           0        1.922705   -2.590494   -0.115070
     22          1           0        4.228094   -1.717315    0.194852
     23          1           0        4.626493    0.722752    0.376877
     24          1           0        2.724022    2.315674    0.250547
     25          1           0       -0.212586    2.160155    0.771815
     26          1           0       -0.033915    2.203153   -0.976103
 ---------------------------------------------------------------------

 SCF Done:  E(UB3LYP) =  -465.852026130     A.U. after   33 cycles
 SCF Done:  E(UB3LYP) =  -465.852026130     a.u. after    1 cycles

 The electronic state is 2-A.
 Alpha  occ. eigenvalues --  -10.07132 -10.07104 -10.07062 -10.06981 -10.06952
 Alpha  occ. eigenvalues --  -10.06927 -10.06739 -10.06681 -10.06660 -10.06376
 Alpha  occ. eigenvalues --  -10.05281 -10.05117  -0.76922  -0.71656  -0.67679
 Alpha  occ. eigenvalues --   -0.65464  -0.62281  -0.59417  -0.56398  -0.50491
 Alpha  occ. eigenvalues --   -0.48908  -0.47242  -0.41947  -0.40327  -0.36964
 Alpha  occ. eigenvalues --   -0.35162  -0.34881  -0.33675  -0.32095  -0.31236
 Alpha  occ. eigenvalues --   -0.30264  -0.30090  -0.28627  -0.26501  -0.25879
 Alpha  occ. eigenvalues --   -0.25188  -0.24568  -0.23390  -0.23060  -0.21409
 Alpha  occ. eigenvalues --   -0.14900  -0.14750  -0.12429   0.04727
 Alpha virt. eigenvalues --    0.06337   0.07277   0.07465   0.08291   0.08630
 Alpha virt. eigenvalues --    0.09160   0.09500   0.10198   0.10678   0.11288
 Alpha virt. eigenvalues --    0.11721   0.12107   0.12527   0.12748   0.13839

  Beta  occ. eigenvalues --  -10.07129 -10.07102 -10.07058 -10.06964 -10.06942
  Beta  occ. eigenvalues --  -10.06911 -10.06684 -10.06633 -10.06602 -10.06367
  Beta  occ. eigenvalues --  -10.05264 -10.05064  -0.76852  -0.71573  -0.67625
  Beta  occ. eigenvalues --   -0.65380  -0.62211  -0.59355  -0.56318  -0.50394
  Beta  occ. eigenvalues --   -0.48815  -0.47198  -0.41867  -0.40258  -0.36917
  Beta  occ. eigenvalues --   -0.35079  -0.34785  -0.33614  -0.32044  -0.31175
  Beta  occ. eigenvalues --   -0.30201  -0.30036  -0.28576  -0.26427  -0.25824
  Beta  occ. eigenvalues --   -0.25033  -0.24519  -0.23354  -0.23014  -0.21366
  Beta  occ. eigenvalues --   -0.14635  -0.14589  -0.12254
  Beta virt. eigenvalues --    0.06795   0.07287   0.07630   0.07936   0.08882
  Beta virt. eigenvalues --    0.09152   0.09492   0.09547   0.10735   0.11065
  Beta virt. eigenvalues --    0.11530   0.12080   0.12290   0.12820   0.13125

 Mulliken charges and spin densities:
               1          2
     1  C    1.589389  -2.194559
     2  C   -1.624066   1.416879
     3  C   -0.022845   0.071158
     4  C    1.120735  -0.441454
     5  C    0.603137  -1.409098
     6  C    0.117614  -0.380880
     7  C   -1.076058   0.875968
     8  C    0.680506  -0.929008
     9  C    0.635784  -0.909731
    10  C   -1.213012   1.248493
    11  C    0.040202   0.248541
    12  C    0.641247  -1.178230
    13  H   -0.153689   0.292157
    14  H   -0.628652   0.768234
    15  H   -0.334093   0.460712
    16  H   -0.253814   0.430346
    17  H   -0.042940   0.170797
    18  H   -0.161202   0.331017
    19  H   -0.045731   0.206887
    20  H    0.158381  -0.007574
    21  H   -0.323524   0.479693
    22  H   -0.286938   0.430341
    23  H   -0.345413   0.489393
    24  H   -0.194686   0.340758
    25  H   -0.014926   0.175766
    26  H    0.134595   0.013396
 Sum of Mulliken charges =  -1.00000   1.00000

 Dipole moment (field-independent basis, Debye):
    X=              3.6007    Y=              1.7974    Z=             -2.8300  Tot=              4.9199
 Quadrupole moment (field-independent basis, Debye-Ang):
   XX=           -175.8668   YY=           -105.3711   ZZ=            -98.6130
   XY=             -4.4759   XZ=              5.9696   YZ=             -0.0737

 Summary of Natural Population Analysis:

                                       Natural Population
                Natural  -----------------------------------------------
    Atom  No    Charge         Core      Valence    Rydberg      Total
 -----------------------------------------------------------------------
      C    1   -0.28014      0.99966     2.27583    0.00465     3.28014
      C    2   -0.20389      0.99963     2.19502    0.00925     3.20389
      C    3   -0.09305      0.99944     2.08389    0.00972     3.09305
      C    4    0.00652      0.99951     1.98381    0.01016     2.99348
      C    5   -0.21342      0.99957     2.20573    0.00813     3.21342
      C    6   -0.01056      0.99948     2.00155    0.00954     3.01056
      C    7   -0.09118      0.99951     2.08263    0.00904     3.09118
      C    8   -0.11615      0.99958     2.10104    0.01552     3.11615
      C    9   -0.07227      0.99957     2.06547    0.00723     3.07227
      C   10   -0.10576      0.99952     2.09149    0.01475     3.10576
      C   11   -0.01248      0.99947     2.00347    0.00954     3.01248
      C   12   -0.20743      0.99957     2.20004    0.00783     3.20743
      H   13    0.09813      0.00000     0.40045    0.00142     0.40187
      H   14    0.09896      0.00000     0.39864    0.00240     0.40104
      H   15    0.09502      0.00000     0.40344    0.00155     0.40498
      H   16    0.09756      0.00000     0.40101    0.00143     0.40244
      H   17    0.09677      0.00000     0.40208    0.00115     0.40323
      H   18    0.09052      0.00000     0.40853    0.00095     0.40948
      H   19    0.11323      0.00000     0.38521    0.00156     0.38677
      H   20    0.10599      0.00000     0.39288    0.00113     0.39401
      H   21    0.09865      0.00000     0.40002    0.00133     0.40135
      H   22    0.09844      0.00000     0.40054    0.00103     0.40156
      H   23    0.09472      0.00000     0.40383    0.00145     0.40528
      H   24    0.09760      0.00000     0.40121    0.00118     0.40240
      H   25    0.11022      0.00000     0.38832    0.00146     0.38978
      H   26    0.10446      0.00000     0.39445    0.00110     0.39554
 =======================================================================
   * Total *    0.00044     11.99451    30.87056    0.13448    42.99956

 Normal termination of Gaussian 16 at Wed Dec  9 17:16:18 2020.
