 Gaussian 16, Revision A.03,

 -----------------------------------------------------------
 # opt freq B3LYP/6-31G(d) empiricaldispersion=gd3bj scf=xqc
 -----------------------------------------------------------

 -------------------------------
 CID_117125337_JID_9372_neutraal
 -------------------------------
 Symbolic Z-matrix:
 Charge =  0 Multiplicity = 1

 SCF Done:  E(RB3LYP) =  -859.641002783     A.U. after   14 cycles
 SCF Done:  E(RB3LYP) =  -859.646239626     A.U. after   13 cycles
 SCF Done:  E(RB3LYP) =  -859.647411920     A.U. after   12 cycles
 SCF Done:  E(RB3LYP) =  -859.647823435     A.U. after   11 cycles
 SCF Done:  E(RB3LYP) =  -859.648082500     A.U. after   12 cycles
 SCF Done:  E(RB3LYP) =  -859.648248423     A.U. after   11 cycles
 SCF Done:  E(RB3LYP) =  -859.648376676     A.U. after   12 cycles
 SCF Done:  E(RB3LYP) =  -859.648581915     A.U. after   11 cycles
 SCF Done:  E(RB3LYP) =  -859.648781318     A.U. after   12 cycles
 SCF Done:  E(RB3LYP) =  -859.648889846     A.U. after   11 cycles
 SCF Done:  E(RB3LYP) =  -859.649193452     A.U. after    9 cycles
 SCF Done:  E(RB3LYP) =  -859.649193666     A.U. after    7 cycles
 SCF Done:  E(RB3LYP) =  -859.649193779     A.U. after    7 cycles
 SCF Done:  E(RB3LYP) =  -859.649193654     A.U. after    8 cycles
 SCF Done:  E(RB3LYP) =  -859.649193645     A.U. after    6 cycles
 Optimization completed.
    -- Stationary point found.
 Normal termination of Gaussian 16 at Mon Dec 14 16:59:46 2020.

 --------------------------------------------------------------------
 #N Geom=AllCheck Guess=TCheck SCRF=Check GenChk RB3LYP/6-31G(d) Freq
 --------------------------------------------------------------------

 Structure from the checkpoint file:  "JID_9372.chk"
 -------------------------------
 CID_117125337_JID_9372_neutraal
 -------------------------------
 Charge =  0 Multiplicity = 1

 SCF Done:  E(RB3LYP) =  -859.649193645     A.U. after    1 cycles

  Exact polarizability: 224.682  10.882 162.468  -3.310   1.792 119.636
 Approx polarizability: 300.376  13.072 256.729  -5.217   1.928 197.514

                      1                      2                      3
                      A                      A                      A
 Frequencies --     12.5294                21.4133                31.1196
 Red. masses --      3.5339                 4.1781                 5.0111
 Frc consts  --      0.0003                 0.0011                 0.0029
 IR Inten    --      0.4421                 0.1371                 0.4112

                      4                      5                      6
                      A                      A                      A
 Frequencies --     40.6808                69.0185                92.5371
 Red. masses --      3.1741                 4.1651                 3.2316
 Frc consts  --      0.0031                 0.0117                 0.0163
 IR Inten    --      0.7325                 0.6335                 1.8676

                      7                      8                      9
                      A                      A                      A
 Frequencies --     96.5056               133.4799               185.5224
 Red. masses --      3.2380                 2.1489                 2.9989
 Frc consts  --      0.0178                 0.0226                 0.0608
 IR Inten    --      2.7880                 1.4048                 0.3995

                     10                     11                     12
                      A                      A                      A
 Frequencies --    200.0205               217.8016               229.7575
 Red. masses --      3.5918                 2.0889                 1.2763
 Frc consts  --      0.0847                 0.0584                 0.0397
 IR Inten    --      0.6352                 0.3292                 0.0956

                     13                     14                     15
                      A                      A                      A
 Frequencies --    237.2179               264.3446               271.8121
 Red. masses --      2.4958                 3.1820                 1.8656
 Frc consts  --      0.0827                 0.1310                 0.0812
 IR Inten    --      0.3477                 0.1370                 1.5843

                     16                     17                     18
                      A                      A                      A
 Frequencies --    288.0043               318.6749               351.0791
 Red. masses --      1.4844                 2.8597                 4.2942
 Frc consts  --      0.0725                 0.1711                 0.3119
 IR Inten    --      0.1577                 0.6192                 5.3566

                     19                     20                     21
                      A                      A                      A
 Frequencies --    358.6891               392.6136               444.3274
 Red. masses --      4.0555                 2.6973                 3.5430
 Frc consts  --      0.3074                 0.2450                 0.4121
 IR Inten    --      0.4943                 1.5994                 5.7401

                     22                     23                     24
                      A                      A                      A
 Frequencies --    462.6903               464.0437               481.6782
 Red. masses --      3.7619                 3.8311                 2.4604
 Frc consts  --      0.4745                 0.4861                 0.3363
 IR Inten    --      0.6433                 1.3464                 1.6765

                     25                     26                     27
                      A                      A                      A
 Frequencies --    551.9444               562.2334               588.4647
 Red. masses --      5.9271                 3.6745                 4.6833
 Frc consts  --      1.0639                 0.6843                 0.9555
 IR Inten    --      0.9401                 2.8507                 6.5778

                     28                     29                     30
                      A                      A                      A
 Frequencies --    620.6727               640.0264               682.2500
 Red. masses --      4.7733                 4.6504                 5.3813
 Frc consts  --      1.0834                 1.1224                 1.4758
 IR Inten    --      0.1062                 3.8920                 6.3807

                     31                     32                     33
                      A                      A                      A
 Frequencies --    692.5389               725.0626               745.9454
 Red. masses --      2.4108                 2.6688                 4.4423
 Frc consts  --      0.6812                 0.8266                 1.4564
 IR Inten    --      3.2486                 9.6419                 8.8194

                     34                     35                     36
                      A                      A                      A
 Frequencies --    776.9884               780.1059               793.9365
 Red. masses --      2.6560                 1.2905                 1.6373
 Frc consts  --      0.9447                 0.4627                 0.6081
 IR Inten    --     58.2787                31.7750                16.2668

                     37                     38                     39
                      A                      A                      A
 Frequencies --    810.7560               837.9245               862.1103
 Red. masses --      3.8572                 1.6656                 1.4787
 Frc consts  --      1.4938                 0.6890                 0.6475
 IR Inten    --      8.0136                32.3568                 1.8380

                     40                     41                     42
                      A                      A                      A
 Frequencies --    865.6350               870.3687               924.2652
 Red. masses --      1.6229                 1.4185                 2.0951
 Frc consts  --      0.7165                 0.6331                 1.0545
 IR Inten    --     47.1026                 0.1495                 0.7608

                     43                     44                     45
                      A                      A                      A
 Frequencies --    936.5259               962.9815               980.0869
 Red. masses --      1.4627                 1.2412                 4.0999
 Frc consts  --      0.7559                 0.6781                 2.3203
 IR Inten    --      9.0444                 0.2544                74.5781

                     46                     47                     48
                      A                      A                      A
 Frequencies --   1002.9525              1018.3044              1042.9963
 Red. masses --      3.4243                 6.1335                 1.4404
 Frc consts  --      2.0295                 3.7473                 0.9232
 IR Inten    --     38.6341                 0.9957                 4.3849

                     49                     50                     51
                      A                      A                      A
 Frequencies --   1061.2034              1082.6143              1105.6412
 Red. masses --      3.4680                 3.5171                 2.0994
 Frc consts  --      2.3010                 2.4287                 1.5121
 IR Inten    --     46.4607                27.1435                10.0768

                     52                     53                     54
                      A                      A                      A
 Frequencies --   1107.6652              1110.0943              1143.1620
 Red. masses --      1.6013                 1.5464                 1.9696
 Frc consts  --      1.1575                 1.1228                 1.5165
 IR Inten    --     23.2384                 9.9124                11.4759

                     55                     56                     57
                      A                      A                      A
 Frequencies --   1174.3240              1179.2160              1184.9752
 Red. masses --      1.5821                 1.5879                 1.2718
 Frc consts  --      1.2855                 1.3010                 1.0522
 IR Inten    --     48.9189                37.4821                 0.8008

                     58                     59                     60
                      A                      A                      A
 Frequencies --   1188.0387              1196.2026              1208.6610
 Red. masses --      1.4410                 1.6662                 1.7648
 Frc consts  --      1.1983                 1.4047                 1.5190
 IR Inten    --      5.2455                 9.6953                39.0961

                     61                     62                     63
                      A                      A                      A
 Frequencies --   1230.7535              1236.7773              1278.4237
 Red. masses --      1.7522                 1.6695                 2.0002
 Frc consts  --      1.5638                 1.5046                 1.9260
 IR Inten    --     50.8080                37.9021                17.8805

                     64                     65                     66
                      A                      A                      A
 Frequencies --   1324.2033              1328.3209              1331.0222
 Red. masses --      2.4296                 2.1535                 1.8168
 Frc consts  --      2.5101                 2.2387                 1.8964
 IR Inten    --     87.0956                53.8348                94.4704

                     67                     68                     69
                      A                      A                      A
 Frequencies --   1370.2372              1378.6898              1384.0901
 Red. masses --      1.7649                 4.0470                 1.5402
 Frc consts  --      1.9524                 4.5322                 1.7385
 IR Inten    --     47.9007                22.4918                 7.0030

                     70                     71                     72
                      A                      A                      A
 Frequencies --   1399.3477              1415.3970              1433.5507
 Red. masses --      1.3206                 5.4566                 6.1110
 Frc consts  --      1.5236                 6.4407                 7.3993
 IR Inten    --      2.8043               145.4117                46.6554

                     73                     74                     75
                      A                      A                      A
 Frequencies --   1438.3295              1482.6055              1482.9624
 Red. masses --      1.3043                 1.1832                 1.8898
 Frc consts  --      1.5898                 1.5323                 2.4487
 IR Inten    --      6.3582                 2.5845                21.8900

                     76                     77                     78
                      A                      A                      A
 Frequencies --   1493.3875              1505.4254              1509.4443
 Red. masses --      3.9195                 1.1137                 1.6334
 Frc consts  --      5.1502                 1.4871                 2.1927
 IR Inten    --     37.1876                 5.6398                40.3131

                     79                     80                     81
                      A                      A                      A
 Frequencies --   1511.8988              1521.4947              1523.9736
 Red. masses --      1.0667                 1.0488                 1.0586
 Frc consts  --      1.4367                 1.4304                 1.4485
 IR Inten    --     11.0319                 7.6294                 6.8787

                     82                     83                     84
                      A                      A                      A
 Frequencies --   1529.7796              1534.2294              1540.2787
 Red. masses --      1.0642                 1.1645                 1.1107
 Frc consts  --      1.4674                 1.6149                 1.5526
 IR Inten    --      6.4893                57.8954                13.9467

                     85                     86                     87
                      A                      A                      A
 Frequencies --   1549.5781              1561.5343              1616.0242
 Red. masses --      2.0397                 1.1171                 5.5011
 Frc consts  --      2.8857                 1.6049                 8.4644
 IR Inten    --     60.9622                20.3816               117.0174

                     88                     89                     90
                      A                      A                      A
 Frequencies --   1657.1160              1665.9824              2975.3674
 Red. masses --      6.1955                 6.5772                 1.0573
 Frc consts  --     10.0238                10.7556                 5.5150
 IR Inten    --    127.5109                95.3488                69.9420

                     91                     92                     93
                      A                      A                      A
 Frequencies --   3026.3595              3033.2151              3053.4744
 Red. masses --      1.0348                 1.0841                 1.0371
 Frc consts  --      5.5839                 5.8767                 5.6969
 IR Inten    --     48.3096                30.5108                22.1544

                     94                     95                     96
                      A                      A                      A
 Frequencies --   3073.1369              3084.8507              3088.2210
 Red. masses --      1.0770                 1.1062                 1.0599
 Frc consts  --      5.9930                 6.2021                 5.9557
 IR Inten    --     60.3961                36.7647                32.6066

                     97                     98                     99
                      A                      A                      A
 Frequencies --   3116.1657              3120.8821              3136.5021
 Red. masses --      1.1010                 1.1015                 1.1064
 Frc consts  --      6.2990                 6.3210                 6.4129
 IR Inten    --     33.1505                33.1633                14.9546

                    100                    101                    102
                      A                      A                      A
 Frequencies --   3145.5997              3159.7038              3195.2939
 Red. masses --      1.1012                 1.0998                 1.0878
 Frc consts  --      6.4199                 6.4691                 6.5439
 IR Inten    --     23.6119                27.5506                15.2982

                    103                    104                    105
                      A                      A                      A
 Frequencies --   3223.1873              3228.0356              3261.9204
 Red. masses --      1.0914                 1.0952                 1.0885
 Frc consts  --      6.6806                 6.7237                 6.8236
 IR Inten    --      8.5921                 6.6540                 0.6875

                    106                    107                    108
                      A                      A                      A
 Frequencies --   3271.4807              3290.5906              3483.0912
 Red. masses --      1.0971                 1.0986                 1.0730
 Frc consts  --      6.9184                 7.0088                 7.6694
 IR Inten    --      1.7801                 0.2600                10.7629

 - Thermochemistry -
 -------------------
 Temperature   298.150 Kelvin.  Pressure   1.00000 Atm.
 Atom     1 has atomic number  6 and mass  12.00000

 Molecular mass:   261.14773 amu.
 Principal axes and moments of inertia in atomic units:
                           1         2         3
     Eigenvalues --  2686.260278559.07183**********
           X            0.99997   0.00798   0.00013
           Y           -0.00798   0.99997   0.00169
           Z           -0.00012  -0.00170   1.00000
 This molecule is an asymmetric top.
 Rotational symmetry number  1.
 Warning -- assumption of classical behavior for rotation
           may cause significant error
 Rotational temperatures (Kelvin)      0.03224     0.01012     0.00837
 Rotational constants (GHZ):           0.67184     0.21086     0.17447
 Zero-point vibrational energy     842675.7 (Joules/Mol)
                                  201.40432 (Kcal/Mol)
 Warning -- explicit consideration of  28 degrees of freedom as
           vibrations may cause significant error
 Vibrational temperatures:     18.03    30.81    44.77    58.53    99.30
          (Kelvin)            133.14   138.85   192.05   266.93   287.78
                              313.37   330.57   341.30   380.33   391.08
                              414.37   458.50   505.12   516.07   564.88
                              639.29   665.71   667.66   693.03   794.12
                              808.93   846.67   893.01   920.86   981.61
                              996.41  1043.20  1073.25  1117.91  1122.40
                             1142.30  1166.50  1205.59  1240.38  1245.46
                             1252.27  1329.81  1347.45  1385.52  1410.13
                             1443.02  1465.11  1500.64  1526.83  1557.64
                             1590.77  1593.68  1597.18  1644.76  1689.59
                             1696.63  1704.92  1709.32  1721.07  1738.99
                             1770.78  1779.45  1839.37  1905.23  1911.16
                             1915.04  1971.47  1983.63  1991.40  2013.35
                             2036.44  2062.56  2069.44  2133.14  2133.65
                             2148.65  2165.97  2171.75  2175.29  2189.09
                             2192.66  2201.01  2207.41  2216.12  2229.50
                             2246.70  2325.10  2384.22  2396.98  4280.89
                             4354.26  4364.12  4393.27  4421.56  4438.41
                             4443.26  4483.47  4490.25  4512.73  4525.82
                             4546.11  4597.32  4637.45  4644.42  4693.18
                             4706.93  4734.43  5011.39

 Zero-point correction=                           0.320958 (Hartree/Particle)
 Thermal correction to Energy=                    0.339348
 Thermal correction to Enthalpy=                  0.340292
 Thermal correction to Gibbs Free Energy=         0.271439
 Sum of electronic and zero-point Energies=           -859.328235
 Sum of electronic and thermal Energies=              -859.309846
 Sum of electronic and thermal Enthalpies=            -859.308902
 Sum of electronic and thermal Free Energies=         -859.377755

                     E (Thermal)             CV                S
                      KCal/Mol        Cal/Mol-Kelvin    Cal/Mol-Kelvin
 Total                  212.944             69.374            144.914
 Electronic               0.000              0.000              0.000
 Translational            0.889              2.981             42.579
 Rotational               0.889              2.981             33.830
 Vibrational            211.166             63.412             68.505
 Vibration     1          0.593              1.987              7.563
 Vibration     2          0.593              1.985              6.499
 Vibration     3          0.594              1.983              5.757
 Vibration     4          0.594              1.981              5.226
 Vibration     5          0.598              1.969              4.181
 Vibration     6          0.602              1.955              3.606
 Vibration     7          0.603              1.952              3.524
 Vibration     8          0.613              1.920              2.895
 Vibration     9          0.632              1.860              2.272
 Vibration    10          0.638              1.840              2.133
 Vibration    11          0.646              1.814              1.977
 Vibration    12          0.652              1.796              1.881
 Vibration    13          0.656              1.784              1.824
 Vibration    14          0.671              1.738              1.633
 Vibration    15          0.675              1.725              1.585
 Vibration    16          0.685              1.696              1.486
 Vibration    17          0.705              1.638              1.317
 Vibration    18          0.728              1.573              1.161
 Vibration    19          0.734              1.557              1.128
 Vibration    20          0.760              1.486              0.990
 Vibration    21          0.804              1.373              0.813
 Vibration    22          0.820              1.333              0.758
 Vibration    23          0.822              1.330              0.754
 Vibration    24          0.838              1.291              0.706
 Vibration    25          0.907              1.135              0.540
 Vibration    26          0.918              1.113              0.519
 Vibration    27          0.946              1.056              0.470
 Vibration    28          0.981              0.988              0.415

 Optimization completed.
    -- Stationary point found.
 Normal termination of Gaussian 16 at Mon Dec 14 17:19:56 2020.

 ----------------------------------------------------------------------
 # B3LYP/6-311++G(d,p) empiricaldispersion=gd3bj scf=xqc pop=npa geom=c
 heck
 ----------------------------------------------------------------------

 ---------------------------------------
 CID_117125337_JID_9372_Energie_neutraal
 ---------------------------------------
 Structure from the checkpoint file:  "JID_9372.chk"
 Charge =  0 Multiplicity = 1

 SCF Done:  E(RB3LYP) =  -859.884268872     A.U. after   15 cycles
 Normal termination of Gaussian 16 at Mon Dec 14 17:29:12 2020.

 ----------------------------------------------------------------------
 # B3LYP/6-311++G(d,p) empiricaldispersion=gd3bj scf=xqc pop=npa geom=c
 heck
 ----------------------------------------------------------------------

 -------------------------------------
 CID_117125337_JID_9372_Energie_kation
 -------------------------------------
 Structure from the checkpoint file:  "JID_9372.chk"
 Charge =  1 Multiplicity = 2

 SCF Done:  E(UB3LYP) =  -859.607263312     A.U. after   26 cycles
 Normal termination of Gaussian 16 at Mon Dec 14 17:52:51 2020.
 Gaussian 16:  ES64L-G16RevA.03 25-Dec-2016

 ----------------------------------------------------------------------
 # B3LYP/6-311++G(d,p) empiricaldispersion=gd3bj scf=xqc pop=npa geom=c
 heck
 ----------------------------------------------------------------------

 ------------------------------------
 CID_117125337_JID_9372_Energie_anion
 ------------------------------------
 Structure from the checkpoint file:  "JID_9372.chk"
 Charge = -1 Multiplicity = 2

                         Standard orientation:
 ---------------------------------------------------------------------
 Center     Atomic      Atomic             Coordinates (Angstroms)
 Number     Number       Type             X           Y           Z
 ---------------------------------------------------------------------
      1          6           0        2.155694    1.728814    0.981082
      2          6           0        3.394187    0.869704    0.715986
      3          6           0        3.148219   -0.608486    1.119686
      4          7           0        1.981822   -1.171986    0.459664
      5          6           0        0.751753   -1.388765    0.994942
      6          6           0       -0.064302   -1.764451   -0.059460
      7          6           0        0.760164   -1.736215   -1.201644
      8          7           0        2.005565   -1.373411   -0.880483
      9          8           0       -1.382562   -2.134779    0.003878
     10          6           0       -2.347293   -1.141953   -0.004860
     11          6           0       -3.667187   -1.574520    0.101832
     12          6           0       -4.685154   -0.620176    0.098687
     13          6           0       -4.402071    0.737599   -0.007045
     14          6           0       -3.068618    1.152185   -0.114258
     15          6           0       -2.030534    0.214344   -0.115017
     16          8           0       -2.867108    2.498080   -0.214167
     17          6           0       -1.532282    2.965806   -0.312802
     18          7           0        3.819391    1.057552   -0.667706
     19          6           0        5.135599    0.513749   -0.980724
     20          1           0        1.333682    1.429293    0.321027
     21          1           0        2.385100    2.778235    0.780140
     22          1           0        1.808805    1.631170    2.016380
     23          1           0        4.214614    1.223665    1.356348
     24          1           0        4.012963   -1.226325    0.864532
     25          1           0        2.979123   -0.688798    2.197517
     26          1           0        0.546402   -1.267167    2.047559
     27          1           0        0.500121   -1.976365   -2.223253
     28          1           0       -3.873780   -2.635585    0.184985
     29          1           0       -5.718565   -0.944463    0.181709
     30          1           0       -5.185488    1.487329   -0.008534
     31          1           0       -0.996808    0.515827   -0.201739
     32          1           0       -0.942254    2.690965    0.571477
     33          1           0       -1.033028    2.577253   -1.210152
     34          1           0       -1.599267    4.052941   -0.379213
     35          1           0        3.130108    0.609416   -1.271398
     36          1           0        5.237987   -0.576284   -0.838158
     37          1           0        5.370373    0.732740   -2.027071
     38          1           0        5.890775    1.008863   -0.358581
 ---------------------------------------------------------------------

 SCF Done:  E(UB3LYP) =  -859.874002702     A.U. after   33 cycles
 SCF Done:  E(UB3LYP) =  -859.874002702     a.u. after    1 cycles

 The electronic state is 2-A.
 Alpha  occ. eigenvalues --  -19.08440 -19.07528 -14.30467 -14.24511 -14.19815
 Alpha  occ. eigenvalues --  -10.16118 -10.15902 -10.13989 -10.13835 -10.11867
 Alpha  occ. eigenvalues --  -10.11592 -10.10854 -10.10657 -10.10190 -10.09186
 Alpha  occ. eigenvalues --  -10.09118 -10.08807 -10.08774 -10.06329  -1.00279
 Alpha  occ. eigenvalues --   -0.99119  -0.96551  -0.81454  -0.77763  -0.75683
 Alpha  occ. eigenvalues --   -0.70727  -0.67893  -0.67229  -0.66155  -0.62244
 Alpha  occ. eigenvalues --   -0.60299  -0.56659  -0.55662  -0.52191  -0.51745
 Alpha  occ. eigenvalues --   -0.50354  -0.48335  -0.46986  -0.44217  -0.41841
 Alpha  occ. eigenvalues --   -0.41039  -0.40842  -0.39738  -0.38992  -0.37239
 Alpha  occ. eigenvalues --   -0.37038  -0.36603  -0.35679  -0.35381  -0.34874
 Alpha  occ. eigenvalues --   -0.32825  -0.32347  -0.31373  -0.31303  -0.30374
 Alpha  occ. eigenvalues --   -0.30236  -0.28659  -0.28260  -0.27757  -0.26486
 Alpha  occ. eigenvalues --   -0.25959  -0.25695  -0.25407  -0.23298  -0.21050
 Alpha  occ. eigenvalues --   -0.18021  -0.16600  -0.15716  -0.13956  -0.12946
 Alpha  occ. eigenvalues --    0.04078
 Alpha virt. eigenvalues --    0.05752   0.06277   0.06815   0.07132   0.07619
 Alpha virt. eigenvalues --    0.07782   0.08269   0.08605   0.08972   0.09358
 Alpha virt. eigenvalues --    0.09598   0.10236   0.10335   0.10736   0.11158

  Beta  occ. eigenvalues --  -19.08440 -19.07524 -14.30453 -14.24478 -14.19811
  Beta  occ. eigenvalues --  -10.16118 -10.15899 -10.13964 -10.13838 -10.11832
  Beta  occ. eigenvalues --  -10.11554 -10.10839 -10.10652 -10.10183 -10.09181
  Beta  occ. eigenvalues --  -10.09097 -10.08803 -10.08773 -10.06301  -1.00276
  Beta  occ. eigenvalues --   -0.99109  -0.96513  -0.81436  -0.77754  -0.75642
  Beta  occ. eigenvalues --   -0.70692  -0.67869  -0.67213  -0.66122  -0.62212
  Beta  occ. eigenvalues --   -0.60249  -0.56607  -0.55642  -0.52169  -0.51702
  Beta  occ. eigenvalues --   -0.50330  -0.48276  -0.46965  -0.44184  -0.41789
  Beta  occ. eigenvalues --   -0.41000  -0.40801  -0.39723  -0.38972  -0.37207
  Beta  occ. eigenvalues --   -0.36994  -0.36577  -0.35647  -0.35351  -0.34858
  Beta  occ. eigenvalues --   -0.32782  -0.32308  -0.31351  -0.31272  -0.30351
  Beta  occ. eigenvalues --   -0.30206  -0.28624  -0.28245  -0.27738  -0.26449
  Beta  occ. eigenvalues --   -0.25936  -0.25659  -0.25362  -0.23277  -0.21007
  Beta  occ. eigenvalues --   -0.17927  -0.16580  -0.15643  -0.13943  -0.12919
  Beta virt. eigenvalues --    0.05808   0.06560   0.06790   0.07041   0.07531
  Beta virt. eigenvalues --    0.07844   0.08062   0.08503   0.08946   0.09235
  Beta virt. eigenvalues --    0.09745   0.09866   0.10416   0.10718   0.11150

 Mulliken charges and spin densities:
               1          2
     1  C   -0.250151  -0.445734
     2  C   -1.467085   1.437555
     3  C    2.182821  -2.652118
     4  N    0.341358   0.059526
     5  C    0.105305  -0.154685
     6  C   -0.082119  -0.265353
     7  C   -0.088456   0.026888
     8  N   -0.423719   0.159176
     9  O   -0.078457   0.005395
    10  C    0.242800  -0.187475
    11  C   -0.432295   0.060129
    12  C    0.234366  -0.342568
    13  C    0.067277  -0.455226
    14  C   -0.910547   0.302062
    15  C    0.455998   0.332025
    16  O   -0.153670   0.024449
    17  C   -0.029993  -0.349847
    18  N    0.099421  -0.092755
    19  C    0.375705  -0.741883
    20  H    1.050956  -0.954128
    21  H   -0.188189   0.376741
    22  H   -0.238350   0.423341
    23  H   -0.713140   0.908324
    24  H   -0.044831   0.219495
    25  H   -0.773728   0.977744
    26  H   -0.545492   0.723635
    27  H    0.085220   0.059995
    28  H    0.075599   0.075614
    29  H    0.004535   0.156241
    30  H    0.015982   0.150066
    31  H    0.371405  -0.306780
    32  H    0.029761   0.165159
    33  H   -0.021831   0.191097
    34  H   -0.353868   0.535879
    35  H    0.157420   0.086157
    36  H   -0.011271   0.131309
    37  H    0.034353   0.091344
    38  H   -0.123092   0.269206
 Sum of Mulliken charges =  -1.00000   1.00000

 Dipole moment (field-independent basis, Debye):
    X=             -6.4194    Y=             -2.5063    Z=             -5.5217  Tot=              8.8306
 Quadrupole moment (field-independent basis, Debye-Ang):
   XX=           -202.2597   YY=           -162.8865   ZZ=           -160.0966
   XY=             -0.2093   XZ=            -16.3910   YZ=              0.8727

 Summary of Natural Population Analysis:

                                       Natural Population
                Natural  -----------------------------------------------
    Atom  No    Charge         Core      Valence    Rydberg      Total
 -----------------------------------------------------------------------
      C    1   -0.28771      0.99964     2.28054    0.00754     3.28771
      C    2   -0.01539      0.99960     2.00118    0.01460     3.01539
      C    3   -0.09054      0.99958     2.07755    0.01342     3.09054
      N    4   -0.10080      0.99967     2.58667    0.01447     3.60080
      C    5   -0.01611      0.99948     2.00533    0.01130     3.01611
      C    6    0.08608      0.99933     1.90026    0.01432     2.91392
      C    7   -0.02958      0.99956     2.01701    0.01302     3.02958
      N    8   -0.15695      0.99973     2.64568    0.01154     3.65695
      O    9   -0.26458      0.99984     3.25548    0.00926     4.26458
      C   10    0.17186      0.99937     1.81707    0.01170     2.82814
      C   11   -0.14164      0.99952     2.13234    0.00978     3.14164
      C   12   -0.08807      0.99958     2.07909    0.00940     3.08807
      C   13   -0.13816      0.99952     2.12875    0.00988     3.13816
      C   14    0.17351      0.99940     1.81493    0.01217     2.82649
      C   15   -0.18209      0.99946     2.17611    0.00652     3.18209
      O   16   -0.27149      0.99986     3.26214    0.00949     4.27149
      C   17   -0.10322      0.99960     2.09446    0.00917     3.10322
      N   18   -0.34365      0.99974     2.83296    0.01096     3.84365
      C   19   -0.17876      0.99966     2.17101    0.00810     3.17876
      H   20    0.09270      0.00000     0.40502    0.00227     0.40730
      H   21    0.10644      0.00000     0.39205    0.00152     0.39356
      H   22    0.10240      0.00000     0.39598    0.00162     0.39760
      H   23    0.09896      0.00000     0.39806    0.00298     0.40104
      H   24    0.10613      0.00000     0.39203    0.00184     0.39387
      H   25    0.11069      0.00000     0.38460    0.00471     0.38931
      H   26    0.11384      0.00000     0.38461    0.00155     0.38616
      H   27    0.10030      0.00000     0.39885    0.00085     0.39970
      H   28    0.10701      0.00000     0.39199    0.00100     0.39299
      H   29    0.09999      0.00000     0.39925    0.00076     0.40001
      H   30    0.10635      0.00000     0.39253    0.00112     0.39365
      H   31    0.11686      0.00000     0.38107    0.00207     0.38314
      H   32    0.08908      0.00000     0.40952    0.00141     0.41092
      H   33    0.08530      0.00000     0.41350    0.00120     0.41470
      H   34    0.09553      0.00000     0.40336    0.00111     0.40447
      H   35    0.18129      0.00000     0.31525    0.00346     0.31871
      H   36    0.08028      0.00000     0.41841    0.00131     0.41972
      H   37    0.09219      0.00000     0.40707    0.00074     0.40781
      H   38    0.09197      0.00000     0.40690    0.00113     0.40803
 =======================================================================
   * Total *   -0.00000     18.99213    50.76859    0.23927    70.00000

 Normal termination of Gaussian 16 at Mon Dec 14 18:22:40 2020.
