 Gaussian 16, Revision A.03,

 -----------------------------------------------------------
 # opt freq B3LYP/6-31G(d) empiricaldispersion=gd3bj scf=xqc
 -----------------------------------------------------------

 ------------------------------
 CID_80804749_JID_7347_neutraal
 ------------------------------
 Symbolic Z-matrix:
 Charge =  0 Multiplicity = 1

 SCF Done:  E(RB3LYP) =  -764.828706339     A.U. after   14 cycles
 SCF Done:  E(RB3LYP) =  -764.835838504     A.U. after   12 cycles
 SCF Done:  E(RB3LYP) =  -764.837998195     A.U. after   12 cycles
 SCF Done:  E(RB3LYP) =  -764.838885558     A.U. after   12 cycles
 SCF Done:  E(RB3LYP) =  -764.840165654     A.U. after   12 cycles
 SCF Done:  E(RB3LYP) =  -764.840888444     A.U. after   12 cycles
 SCF Done:  E(RB3LYP) =  -764.840425261     A.U. after   12 cycles
 SCF Done:  E(RB3LYP) =  -764.841269890     A.U. after   12 cycles
 SCF Done:  E(RB3LYP) =  -764.841465437     A.U. after   11 cycles
 SCF Done:  E(RB3LYP) =  -764.841449762     A.U. after   11 cycles
 SCF Done:  E(RB3LYP) =  -764.841517396     A.U. after    9 cycles
 SCF Done:  E(RB3LYP) =  -764.841520079     A.U. after    8 cycles
 SCF Done:  E(RB3LYP) =  -764.841520549     A.U. after    8 cycles
 SCF Done:  E(RB3LYP) =  -764.841520661     A.U. after    7 cycles
 SCF Done:  E(RB3LYP) =  -764.841520678     A.U. after    6 cycles
 Optimization completed.
    -- Stationary point found.
 Normal termination of Gaussian 16 at Mon Dec 14 18:54:28 2020.

 --------------------------------------------------------------------
 #N Geom=AllCheck Guess=TCheck SCRF=Check GenChk RB3LYP/6-31G(d) Freq
 --------------------------------------------------------------------

 Structure from the checkpoint file:  "JID_7347.chk"
 ------------------------------
 CID_80804749_JID_7347_neutraal
 ------------------------------
 Charge =  0 Multiplicity = 1

 SCF Done:  E(RB3LYP) =  -764.841520678     A.U. after    1 cycles

  Exact polarizability: 193.537  -0.792 169.269  14.574  10.978 116.948
 Approx polarizability: 265.318   6.615 246.643  32.717  21.743 172.742

 ******    1 imaginary frequencies (negative Signs) ******

                      1                      2                      3
                      A                      A                      A
 Frequencies --     -8.1273                29.8975                46.9118
 Red. masses --      1.0209                 3.9875                 3.7222
 Frc consts  --      0.0000                 0.0021                 0.0048
 IR Inten    --      0.1481                 0.1757                 0.3030

                      4                      5                      6
                      A                      A                      A
 Frequencies --     56.7333                69.0218                75.0833
 Red. masses --      3.2896                 2.8498                 2.6063
 Frc consts  --      0.0062                 0.0080                 0.0087
 IR Inten    --      1.0515                 1.4504                 0.8984

                      7                      8                      9
                      A                      A                      A
 Frequencies --     98.6505               106.3679               179.3985
 Red. masses --      3.7100                 2.4459                 3.5844
 Frc consts  --      0.0213                 0.0163                 0.0680
 IR Inten    --      3.9085                 1.9061                 0.0379

                     10                     11                     12
                      A                      A                      A
 Frequencies --    185.0329               189.5027               211.5199
 Red. masses --      3.7657                 3.2084                 3.8530
 Frc consts  --      0.0760                 0.0679                 0.1016
 IR Inten    --      0.5224                 5.5940                 4.4926

                     13                     14                     15
                      A                      A                      A
 Frequencies --    229.7718               232.3790               252.0170
 Red. masses --      1.4389                 1.2476                 1.7189
 Frc consts  --      0.0448                 0.0397                 0.0643
 IR Inten    --      2.5509                 1.9198                 1.5123

                     16                     17                     18
                      A                      A                      A
 Frequencies --    264.5648               273.2918               296.1958
 Red. masses --      1.3387                 2.9090                 2.5438
 Frc consts  --      0.0552                 0.1280                 0.1315
 IR Inten    --      0.9963                 0.7951                 3.9090

                     19                     20                     21
                      A                      A                      A
 Frequencies --    315.0667               341.7514               382.8650
 Red. masses --      2.4875                 3.0318                 2.6799
 Frc consts  --      0.1455                 0.2086                 0.2315
 IR Inten    --      0.5208                 1.9383                 3.8794

                     22                     23                     24
                      A                      A                      A
 Frequencies --    407.5037               414.6641               432.3307
 Red. masses --      1.9306                 1.3063                 2.1844
 Frc consts  --      0.1889                 0.1323                 0.2406
 IR Inten    --     19.3115                55.1578                 1.2822

                     25                     26                     27
                      A                      A                      A
 Frequencies --    476.7262               512.1850               536.5026
 Red. masses --      2.1104                 1.4106                 2.8409
 Frc consts  --      0.2826                 0.2180                 0.4818
 IR Inten    --      0.1359               297.3009                 5.2647

                     28                     29                     30
                      A                      A                      A
 Frequencies --    557.9353               574.1141               604.4999
 Red. masses --      3.1710                 4.3238                 3.3065
 Frc consts  --      0.5816                 0.8397                 0.7119
 IR Inten    --      3.6794                38.7557                 3.9296

                     31                     32                     33
                      A                      A                      A
 Frequencies --    628.3087               650.3699               705.9589
 Red. masses --      3.3172                 3.6122                10.6967
 Frc consts  --      0.7715                 0.9002                 3.1409
 IR Inten    --     19.0142                 1.4133                 7.4538

                     34                     35                     36
                      A                      A                      A
 Frequencies --    761.4648               810.4878               821.7355
 Red. masses --      1.5462                 4.2775                 2.7856
 Frc consts  --      0.5282                 1.6555                 1.1082
 IR Inten    --      0.9303                50.8264                 9.5254

                     37                     38                     39
                      A                      A                      A
 Frequencies --    839.2807               863.0163               923.2567
 Red. masses --      2.6750                 2.1282                 1.6717
 Frc consts  --      1.1102                 0.9339                 0.8396
 IR Inten    --      5.8534                 0.6377                 6.2214

                     40                     41                     42
                      A                      A                      A
 Frequencies --    942.8541               953.5010               981.6957
 Red. masses --      1.2473                 1.8747                 1.4720
 Frc consts  --      0.6533                 1.0042                 0.8358
 IR Inten    --      6.2432                 5.5427                 0.9919

                     43                     44                     45
                      A                      A                      A
 Frequencies --    991.2743               999.3248              1017.8684
 Red. masses --      2.2766                 4.6504                 2.1697
 Frc consts  --      1.3181                 2.7362                 1.3245
 IR Inten    --      0.9544                21.6390                23.4465

                     46                     47                     48
                      A                      A                      A
 Frequencies --   1038.1146              1057.7750              1075.9610
 Red. masses --      2.9795                 2.8823                 1.6412
 Frc consts  --      1.8918                 1.9001                 1.1194
 IR Inten    --     37.5122                13.0994                 7.2574

                     49                     50                     51
                      A                      A                      A
 Frequencies --   1103.8202              1124.4122              1133.3022
 Red. masses --      2.1589                 1.9233                 1.5932
 Frc consts  --      1.5498                 1.4327                 1.2056
 IR Inten    --     24.5562                11.3128                 0.1836

                     52                     53                     54
                      A                      A                      A
 Frequencies --   1157.8469              1170.9253              1191.8887
 Red. masses --      2.2083                 4.0825                 1.4132
 Frc consts  --      1.7442                 3.2978                 1.1828
 IR Inten    --      6.5056               138.4810                 5.7835

                     55                     56                     57
                      A                      A                      A
 Frequencies --   1200.0635              1213.3228              1219.2310
 Red. masses --      1.6517                 1.9133                 1.9421
 Frc consts  --      1.4015                 1.6595                 1.7009
 IR Inten    --     33.5262                20.7153                55.1589

                     58                     59                     60
                      A                      A                      A
 Frequencies --   1251.0964              1265.0297              1286.3877
 Red. masses --      2.2555                 1.4755                 1.3760
 Frc consts  --      2.0801                 1.3912                 1.3416
 IR Inten    --     28.2494                31.0357                64.1560

                     61                     62                     63
                      A                      A                      A
 Frequencies --   1321.9050              1348.8578              1356.1500
 Red. masses --      2.9894                 1.2526                 1.7295
 Frc consts  --      3.0778                 1.3428                 1.8741
 IR Inten    --     32.6061                 7.2579                12.3367

                     64                     65                     66
                      A                      A                      A
 Frequencies --   1373.0545              1401.5977              1412.2644
 Red. masses --      1.6703                 1.2930                 1.3828
 Frc consts  --      1.8553                 1.4965                 1.6250
 IR Inten    --     25.4113                 9.6218                20.1228

                     67                     68                     69
                      A                      A                      A
 Frequencies --   1412.8201              1425.0184              1428.6038
 Red. masses --      1.3962                 1.3507                 1.3080
 Frc consts  --      1.6421                 1.6160                 1.5728
 IR Inten    --     45.0621                36.2211                 6.4023

                     70                     71                     72
                      A                      A                      A
 Frequencies --   1436.5514              1448.7305              1458.6073
 Red. masses --      1.4252                 1.2585                 3.2724
 Frc consts  --      1.7328                 1.5562                 4.1020
 IR Inten    --      7.0012                21.0991                69.2107

                     73                     74                     75
                      A                      A                      A
 Frequencies --   1476.9416              1486.3772              1503.0302
 Red. masses --      1.4005                 1.6388                 1.1571
 Frc consts  --      1.7999                 2.1333                 1.5401
 IR Inten    --     24.9515                26.4152                 4.9346

                     76                     77                     78
                      A                      A                      A
 Frequencies --   1508.1573              1514.1028              1514.5894
 Red. masses --      1.0789                 1.0684                 1.1645
 Frc consts  --      1.4459                 1.4431                 1.5740
 IR Inten    --      7.0242                 6.1679                17.4912

                     79                     80                     81
                      A                      A                      A
 Frequencies --   1516.2798              1524.2324              1531.3916
 Red. masses --      1.1730                 1.0814                 1.1997
 Frc consts  --      1.5889                 1.4802                 1.6576
 IR Inten    --      3.3926                 7.6018                22.4497

                     82                     83                     84
                      A                      A                      A
 Frequencies --   1532.1887              1534.5658              1539.9747
 Red. masses --      1.1517                 1.0597                 1.1144
 Frc consts  --      1.5931                 1.4703                 1.5571
 IR Inten    --     22.9989                 3.2973                62.5467

                     85                     86                     87
                      A                      A                      A
 Frequencies --   1551.9574              1558.6715              1604.4257
 Red. masses --      1.5059                 1.2793                 7.2662
 Frc consts  --      2.1370                 1.8313                11.0204
 IR Inten    --     95.8456                38.3819               197.1970

                     88                     89                     90
                      A                      A                      A
 Frequencies --   1645.4602              1672.4785              2977.8946
 Red. masses --      3.5317                 1.5093                 1.0638
 Frc consts  --      5.6338                 2.4874                 5.5583
 IR Inten    --    598.9677               431.3675                50.0923

                     91                     92                     93
                      A                      A                      A
 Frequencies --   2992.5097              3032.4771              3035.3961
 Red. masses --      1.0419                 1.0482                 1.1030
 Frc consts  --      5.4975                 5.6791                 5.9876
 IR Inten    --    100.8597                 7.5078                55.6109

                     94                     95                     96
                      A                      A                      A
 Frequencies --   3036.4495              3043.3150              3056.7167
 Red. masses --      1.0571                 1.0423                 1.0424
 Frc consts  --      5.7425                 5.6878                 5.7383
 IR Inten    --     85.5997                18.4000                14.5785

                     97                     98                     99
                      A                      A                      A
 Frequencies --   3063.3702              3075.1482              3081.1315
 Red. masses --      1.0875                 1.0846                 1.0638
 Frc consts  --      6.0127                 6.0431                 5.9499
 IR Inten    --      6.2267                 5.2958                57.7604

                    100                    101                    102
                      A                      A                      A
 Frequencies --   3094.9044              3101.4830              3110.4084
 Red. masses --      1.0991                 1.0979                 1.0991
 Frc consts  --      6.2030                 6.2221                 6.2652
 IR Inten    --     16.1307                12.3029                32.3189

                    103                    104                    105
                      A                      A                      A
 Frequencies --   3114.7434              3121.5051              3129.3032
 Red. masses --      1.0975                 1.0929                 1.1064
 Frc consts  --      6.2734                 6.2744                 6.3837
 IR Inten    --     67.8411                15.3598                19.0250

                    106                    107                    108
                      A                      A                      A
 Frequencies --   3135.2132              3140.8789              3164.5354
 Red. masses --      1.0969                 1.0987                 1.1040
 Frc consts  --      6.3525                 6.3858                 6.5138
 IR Inten    --     32.1064                26.5261                13.0617

                    109                    110                    111
                      A                      A                      A
 Frequencies --   3241.2212              3573.6875              3688.0551
 Red. masses --      1.0901                 1.0464                 1.1008
 Frc consts  --      6.7473                 7.8740                 8.8219
 IR Inten    --     12.7235                34.8416                19.9082

 - Thermochemistry -
 -------------------
 Temperature   298.150 Kelvin.  Pressure   1.00000 Atm.
 Atom     1 has atomic number  6 and mass  12.00000

 Molecular mass:   238.17936 amu.
 Principal axes and moments of inertia in atomic units:
                           1         2         3
     Eigenvalues --  3046.989105500.956937303.62470
           X            0.99957  -0.02923  -0.00255
           Y            0.02922   0.99957  -0.00309
           Z            0.00264   0.00301   0.99999
 This molecule is an asymmetric top.
 Rotational symmetry number  1.
 Warning -- assumption of classical behavior for rotation
           may cause significant error
 Rotational temperatures (Kelvin)      0.02843     0.01575     0.01186
 Rotational constants (GHZ):           0.59230     0.32808     0.24710
    1 imaginary frequencies ignored.
 Zero-point vibrational energy     901873.0 (Joules/Mol)
                                  215.55282 (Kcal/Mol)
 Warning -- explicit consideration of  29 degrees of freedom as
           vibrations may cause significant error
 Vibrational temperatures:     43.02    67.50    81.63    99.31   108.03
          (Kelvin)            141.94   153.04   258.11   266.22   272.65
                              304.33   330.59   334.34   362.60   380.65
                              393.21   426.16   453.31   491.70   550.86
                              586.31   596.61   622.03   685.90   736.92
                              771.91   802.74   826.02   869.74   904.00
                              935.74  1015.72  1095.58  1166.11  1182.29
                             1207.54  1241.69  1328.36  1356.56  1371.88
                             1412.44  1426.22  1437.81  1464.49  1493.62
                             1521.90  1548.07  1588.15  1617.78  1630.57
                             1665.88  1684.70  1714.86  1726.62  1745.70
                             1754.20  1800.05  1820.10  1850.83  1901.93
                             1940.71  1951.20  1975.52  2016.59  2031.93
                             2032.73  2050.28  2055.44  2066.88  2084.40
                             2098.61  2124.99  2138.57  2162.53  2169.90
                             2178.46  2179.16  2181.59  2193.03  2203.33
                             2204.48  2207.90  2215.68  2232.92  2242.58
                             2308.41  2367.45  2406.32  4284.53  4305.55
                             4363.06  4367.26  4368.77  4378.65  4397.93
                             4407.51  4424.45  4433.06  4452.88  4462.34
                             4475.18  4481.42  4491.15  4502.37  4510.87
                             4519.02  4553.06  4663.39  5141.74  5306.29

 Zero-point correction=                           0.343505 (Hartree/Particle)
 Thermal correction to Energy=                    0.361727
 Thermal correction to Enthalpy=                  0.362671
 Thermal correction to Gibbs Free Energy=         0.296924
 Sum of electronic and zero-point Energies=           -764.498015
 Sum of electronic and thermal Energies=              -764.479794
 Sum of electronic and thermal Enthalpies=            -764.478849
 Sum of electronic and thermal Free Energies=         -764.544596

                     E (Thermal)             CV                S
                      KCal/Mol        Cal/Mol-Kelvin    Cal/Mol-Kelvin
 Total                  226.987             68.164            138.376
 Electronic               0.000              0.000              0.000
 Translational            0.889              2.981             42.305
 Rotational               0.889              2.981             33.170
 Vibrational            225.210             62.202             62.901
 Vibration     1          0.594              1.984              5.836
 Vibration     2          0.595              1.979              4.944
 Vibration     3          0.596              1.975              4.568
 Vibration     4          0.598              1.969              4.181
 Vibration     5          0.599              1.966              4.015
 Vibration     6          0.604              1.950              3.481
 Vibration     7          0.605              1.944              3.334
 Vibration     8          0.629              1.868              2.335
 Vibration     9          0.631              1.860              2.277
 Vibration    10          0.633              1.854              2.233
 Vibration    11          0.643              1.823              2.031
 Vibration    12          0.652              1.796              1.881
 Vibration    13          0.653              1.791              1.860
 Vibration    14          0.664              1.759              1.716
 Vibration    15          0.671              1.738              1.631
 Vibration    16          0.676              1.723              1.575
 Vibration    17          0.690              1.681              1.438
 Vibration    18          0.702              1.645              1.336
 Vibration    19          0.721              1.592              1.204
 Vibration    20          0.752              1.507              1.028
 Vibration    21          0.772              1.454              0.935
 Vibration    22          0.778              1.438              0.910
 Vibration    23          0.793              1.400              0.851
 Vibration    24          0.833              1.302              0.719
 Vibration    25          0.867              1.223              0.628
 Vibration    26          0.892              1.169              0.573
 Vibration    27          0.913              1.122              0.528
 Vibration    28          0.930              1.087              0.496
 Vibration    29          0.963              1.022              0.442

                           ! Non-Optimized Parameters !
 Normal termination of Gaussian 16 at Mon Dec 14 19:10:38 2020.

 ----------------------------------------------------------------------
 # B3LYP/6-311++G(d,p) empiricaldispersion=gd3bj scf=xqc pop=npa geom=c
 heck
 ----------------------------------------------------------------------

 --------------------------------------
 CID_80804749_JID_7347_Energie_neutraal
 --------------------------------------
 Structure from the checkpoint file:  "JID_7347.chk"
 Charge =  0 Multiplicity = 1

 SCF Done:  E(RB3LYP) =  -765.059240617     A.U. after   14 cycles
 Normal termination of Gaussian 16 at Mon Dec 14 19:18:29 2020.

 ----------------------------------------------------------------------
 # B3LYP/6-311++G(d,p) empiricaldispersion=gd3bj scf=xqc pop=npa geom=c
 heck
 ----------------------------------------------------------------------

 ------------------------------------
 CID_80804749_JID_7347_Energie_kation
 ------------------------------------
 Structure from the checkpoint file:  "JID_7347.chk"
 Charge =  1 Multiplicity = 2

 SCF Done:  E(UB3LYP) =  -764.786701617     A.U. after   23 cycles
 Normal termination of Gaussian 16 at Mon Dec 14 19:36:53 2020.
 Gaussian 16:  ES64L-G16RevA.03 25-Dec-2016

 ----------------------------------------------------------------------
 # B3LYP/6-311++G(d,p) empiricaldispersion=gd3bj scf=xqc pop=npa geom=c
 heck
 ----------------------------------------------------------------------

 -----------------------------------
 CID_80804749_JID_7347_Energie_anion
 -----------------------------------
 Structure from the checkpoint file:  "JID_7347.chk"
 Charge = -1 Multiplicity = 2

                         Standard orientation:
 ---------------------------------------------------------------------
 Center     Atomic      Atomic             Coordinates (Angstroms)
 Number     Number       Type             X           Y           Z
 ---------------------------------------------------------------------
      1          6           0        3.554693   -2.210890   -0.146491
      2          6           0        2.757302   -0.933876   -0.094857
      3          7           0        3.389571    0.152193    0.357227
      4          6           0        2.659582    1.287265    0.371019
      5          6           0        1.330415    1.338897   -0.051465
      6          6           0        0.766849    0.136179   -0.514673
      7          7           0        1.494781   -1.006765   -0.523857
      8          7           0       -0.521107    0.027386   -0.973654
      9          6           0       -1.014807   -1.283636   -1.391392
     10          6           0       -1.353358   -2.223606   -0.241416
     11          8           0       -2.480100   -1.725976    0.458585
     12          6           0       -2.766603   -2.465318    1.624215
     13          6           0       -1.391074    1.181545   -1.162664
     14          6           0       -2.469169    1.387239   -0.082636
     15          6           0       -1.869044    1.500954    1.320324
     16          6           0       -3.312062    2.616959   -0.438013
     17          7           0        3.324379    2.413506    0.803151
     18          1           0        2.929009   -3.064149    0.129642
     19          1           0        3.914426   -2.385344   -1.168378
     20          1           0        4.421285   -2.145938    0.514552
     21          1           0        0.776485    2.265755    0.003213
     22          1           0       -1.914340   -1.119368   -1.991900
     23          1           0       -0.261227   -1.771758   -2.015639
     24          1           0       -1.570924   -3.226103   -0.649476
     25          1           0       -0.485904   -2.311892    0.425505
     26          1           0       -3.007890   -3.515292    1.391902
     27          1           0       -1.920466   -2.453415    2.329276
     28          1           0       -3.633308   -1.998373    2.099201
     29          1           0       -0.771099    2.078898   -1.246291
     30          1           0       -1.886530    1.067113   -2.136078
     31          1           0       -3.111516    0.500045   -0.093217
     32          1           0       -1.233564    2.390982    1.414196
     33          1           0       -2.662844    1.579552    2.072148
     34          1           0       -1.264703    0.621335    1.557062
     35          1           0       -3.763798    2.523450   -1.433211
     36          1           0       -4.122918    2.758733    0.284995
     37          1           0       -2.701207    3.529640   -0.433435
     38          1           0        4.174946    2.217757    1.314431
     39          1           0        2.767170    3.171672    1.171048
 ---------------------------------------------------------------------

 SCF Done:  E(UB3LYP) =  -765.047058774     A.U. after   33 cycles
 SCF Done:  E(UB3LYP) =  -765.047058774     a.u. after    1 cycles

 The electronic state is 2-A.
 Alpha  occ. eigenvalues --  -19.03577 -14.24330 -14.22433 -14.19587 -14.19491
 Alpha  occ. eigenvalues --  -10.15349 -10.15111 -10.14319 -10.12250 -10.12082
 Alpha  occ. eigenvalues --  -10.11151 -10.10921 -10.07348 -10.07340 -10.06627
 Alpha  occ. eigenvalues --  -10.06454 -10.05265  -0.94988  -0.89665  -0.86149
 Alpha  occ. eigenvalues --   -0.81944  -0.75666  -0.70737  -0.69206  -0.66314
 Alpha  occ. eigenvalues --   -0.62516  -0.60225  -0.58902  -0.58568  -0.54060
 Alpha  occ. eigenvalues --   -0.52434  -0.49885  -0.46957  -0.44929  -0.43756
 Alpha  occ. eigenvalues --   -0.40417  -0.40055  -0.39147  -0.38293  -0.37032
 Alpha  occ. eigenvalues --   -0.36194  -0.35951  -0.35380  -0.34475  -0.33741
 Alpha  occ. eigenvalues --   -0.31971  -0.31207  -0.30896  -0.30209  -0.29577
 Alpha  occ. eigenvalues --   -0.29089  -0.28585  -0.28267  -0.28116  -0.25916
 Alpha  occ. eigenvalues --   -0.24558  -0.24138  -0.23741  -0.22191  -0.20278
 Alpha  occ. eigenvalues --   -0.19837  -0.17486  -0.15604  -0.14109  -0.11917
 Alpha  occ. eigenvalues --    0.04101
 Alpha virt. eigenvalues --    0.05754   0.06503   0.06939   0.07756   0.07953
 Alpha virt. eigenvalues --    0.08565   0.08993   0.09150   0.09647   0.09740
 Alpha virt. eigenvalues --    0.10228   0.10845   0.11364   0.11487   0.11695

  Beta  occ. eigenvalues --  -19.03571 -14.24330 -14.22380 -14.19575 -14.19491
  Beta  occ. eigenvalues --  -10.15344 -10.15109 -10.14313 -10.12238 -10.12049
  Beta  occ. eigenvalues --  -10.11144 -10.10913 -10.07344 -10.07334 -10.06606
  Beta  occ. eigenvalues --  -10.06429 -10.05239  -0.94978  -0.89652  -0.86132
  Beta  occ. eigenvalues --   -0.81901  -0.75637  -0.70719  -0.69178  -0.66292
  Beta  occ. eigenvalues --   -0.62492  -0.60196  -0.58857  -0.58520  -0.54013
  Beta  occ. eigenvalues --   -0.52384  -0.49851  -0.46918  -0.44902  -0.43726
  Beta  occ. eigenvalues --   -0.40379  -0.40017  -0.39097  -0.38269  -0.37007
  Beta  occ. eigenvalues --   -0.36163  -0.35909  -0.35354  -0.34452  -0.33715
  Beta  occ. eigenvalues --   -0.31943  -0.31189  -0.30874  -0.30196  -0.29554
  Beta  occ. eigenvalues --   -0.29057  -0.28564  -0.28244  -0.28093  -0.25887
  Beta  occ. eigenvalues --   -0.24530  -0.24108  -0.23712  -0.22156  -0.20245
  Beta  occ. eigenvalues --   -0.19822  -0.17469  -0.15593  -0.14076  -0.11891
  Beta virt. eigenvalues --    0.06060   0.06870   0.07043   0.07333   0.07991
  Beta virt. eigenvalues --    0.08125   0.09012   0.09225   0.09462   0.09713
  Beta virt. eigenvalues --    0.09945   0.10553   0.11138   0.11538   0.11726

 Mulliken charges and spin densities:
               1          2
     1  C   -0.169999  -0.262064
     2  C   -0.396242   0.140178
     3  N   -0.032914  -0.088556
     4  C   -0.104501   0.190209
     5  C    0.026894  -0.164030
     6  C    0.313222  -0.507442
     7  N   -0.137197   0.073904
     8  N    0.325729   0.038567
     9  C   -0.068528  -0.199584
    10  C   -0.352590  -0.025980
    11  O   -0.103610   0.025724
    12  C    0.595129  -0.848911
    13  C    0.702551  -1.538498
    14  C   -1.414542   1.960342
    15  C    0.560508  -1.213207
    16  C    0.101273  -0.787047
    17  N   -0.322535   0.007823
    18  H    0.020937   0.119938
    19  H    0.086085   0.072461
    20  H    0.122187   0.025788
    21  H   -0.137975   0.256651
    22  H   -0.050223   0.208510
    23  H    0.134405   0.089056
    24  H   -0.153381   0.275319
    25  H    0.416323  -0.193299
    26  H   -0.252240   0.377367
    27  H   -0.191087   0.323506
    28  H   -0.227804   0.361428
    29  H    0.072220   0.129518
    30  H    0.151397   0.014462
    31  H    0.286597  -0.058949
    32  H   -0.122455   0.283868
    33  H   -0.088420   0.234202
    34  H    0.227585  -0.084670
    35  H   -0.151475   0.279360
    36  H   -0.118092   0.262025
    37  H   -0.126192   0.267371
    38  H    0.021467   0.252725
    39  H   -0.442509   0.701933
 Sum of Mulliken charges =  -1.00000   1.00000

 Dipole moment (field-independent basis, Debye):
    X=              0.7302    Y=             -4.0167    Z=             -3.4569  Tot=              5.3495
 Quadrupole moment (field-independent basis, Debye-Ang):
   XX=           -175.7604   YY=           -171.2556   ZZ=           -139.2065
   XY=            -10.6774   XZ=              1.4355   YZ=             -4.1300

 Summary of Natural Population Analysis:

                                       Natural Population
                Natural  -----------------------------------------------
    Atom  No    Charge         Core      Valence    Rydberg      Total
 -----------------------------------------------------------------------
      C    1   -0.29997      0.99963     2.29515    0.00519     3.29997
      C    2    0.23302      0.99963     1.75098    0.01637     2.76698
      N    3   -0.29673      0.99965     2.78709    0.00999     3.79673
      C    4    0.21496      0.99955     1.77018    0.01532     2.78504
      C    5   -0.19367      0.99947     2.18625    0.00795     3.19367
      C    6    0.23108      0.99952     1.75563    0.01377     2.76892
      N    7   -0.30507      0.99964     2.79570    0.00973     3.80507
      N    8   -0.24586      0.99963     2.73433    0.01190     3.74586
      C    9   -0.09102      0.99960     2.08011    0.01131     3.09102
      C   10   -0.01326      0.99957     2.00200    0.01168     3.01326
      O   11   -0.30187      0.99988     3.29171    0.01027     4.30187
      C   12   -0.09627      0.99962     2.08717    0.00948     3.09627
      C   13   -0.07473      0.99958     2.06462    0.01053     3.07473
      C   14   -0.12818      0.99960     2.11872    0.00986     3.12818
      C   15   -0.28489      0.99964     2.27819    0.00706     3.28489
      C   16   -0.28322      0.99965     2.27882    0.00475     3.28322
      N   17   -0.38909      0.99970     2.87959    0.00979     3.88909
      H   18    0.10528      0.00000     0.39369    0.00103     0.39472
      H   19    0.10453      0.00000     0.39436    0.00111     0.39547
      H   20    0.10509      0.00000     0.39390    0.00102     0.39491
      H   21    0.10980      0.00000     0.38835    0.00185     0.39020
      H   22    0.09802      0.00000     0.40069    0.00129     0.40198
      H   23    0.10816      0.00000     0.39064    0.00120     0.39184
      H   24    0.07784      0.00000     0.42085    0.00131     0.42216
      H   25    0.09114      0.00000     0.40710    0.00176     0.40886
      H   26    0.07737      0.00000     0.42097    0.00165     0.42263
      H   27    0.07975      0.00000     0.41896    0.00130     0.42025
      H   28    0.09142      0.00000     0.40745    0.00114     0.40858
      H   29    0.09851      0.00000     0.39992    0.00157     0.40149
      H   30    0.09420      0.00000     0.40477    0.00104     0.40580
      H   31    0.10434      0.00000     0.39285    0.00281     0.39566
      H   32    0.09620      0.00000     0.40226    0.00153     0.40380
      H   33    0.09884      0.00000     0.40019    0.00096     0.40116
      H   34    0.10402      0.00000     0.39428    0.00170     0.39598
      H   35    0.09641      0.00000     0.40260    0.00099     0.40359
      H   36    0.10094      0.00000     0.39815    0.00091     0.39906
      H   37    0.09685      0.00000     0.40198    0.00117     0.40315
      H   38    0.19178      0.00000     0.30589    0.00233     0.30822
      H   39    0.19425      0.00000     0.29868    0.00706     0.30575
 =======================================================================
   * Total *   -0.00000     16.99356    47.79475    0.21169    65.00000

 Normal termination of Gaussian 16 at Mon Dec 14 20:03:55 2020.
