 Gaussian 16, Revision A.03,

 -----------------------------------------------------------
 # opt freq B3LYP/6-31G(d) empiricaldispersion=gd3bj scf=xqc
 -----------------------------------------------------------

 ------------------------------
 CID_63125007_JID_5969_neutraal
 ------------------------------
 Symbolic Z-matrix:
 Charge =  0 Multiplicity = 1

 SCF Done:  E(RB3LYP) =  -727.149579818     A.U. after   14 cycles
 SCF Done:  E(RB3LYP) =  -727.153458786     A.U. after   12 cycles
 SCF Done:  E(RB3LYP) =  -727.152827506     A.U. after   13 cycles
 SCF Done:  E(RB3LYP) =  -727.154090596     A.U. after   12 cycles
 SCF Done:  E(RB3LYP) =  -727.153959921     A.U. after   12 cycles
 SCF Done:  E(RB3LYP) =  -727.154290146     A.U. after   12 cycles
 SCF Done:  E(RB3LYP) =  -727.154296955     A.U. after   10 cycles
 SCF Done:  E(RB3LYP) =  -727.154304923     A.U. after   10 cycles
 SCF Done:  E(RB3LYP) =  -727.154310118     A.U. after   10 cycles
 SCF Done:  E(RB3LYP) =  -727.154313596     A.U. after    9 cycles
 SCF Done:  E(RB3LYP) =  -727.154339484     A.U. after    9 cycles
 SCF Done:  E(RB3LYP) =  -727.154339378     A.U. after    8 cycles
 SCF Done:  E(RB3LYP) =  -727.154339242     A.U. after    7 cycles
 SCF Done:  E(RB3LYP) =  -727.154339135     A.U. after    7 cycles
 SCF Done:  E(RB3LYP) =  -727.154339489     A.U. after    8 cycles
 SCF Done:  E(RB3LYP) =  -727.154339207     A.U. after    8 cycles
 Optimization completed.
    -- Stationary point found.
 Normal termination of Gaussian 16 at Thu Dec 10 18:03:20 2020.

 --------------------------------------------------------------------
 #N Geom=AllCheck Guess=TCheck SCRF=Check GenChk RB3LYP/6-31G(d) Freq
 --------------------------------------------------------------------

 Structure from the checkpoint file:  "JID_5969.chk"
 ------------------------------
 CID_63125007_JID_5969_neutraal
 ------------------------------
 Charge =  0 Multiplicity = 1

 SCF Done:  E(RB3LYP) =  -727.154339207     A.U. after    1 cycles

  Exact polarizability: 132.600   6.577 120.870   1.499  -3.640 107.953
 Approx polarizability: 170.648  13.958 191.770   6.310 -13.390 162.830

                      1                      2                      3
                      A                      A                      A
 Frequencies --     29.4881                43.1125                57.8137
 Red. masses --      4.9063                 7.4091                 2.1453
 Frc consts  --      0.0025                 0.0081                 0.0042
 IR Inten    --      2.0460                 1.8924                 1.1635

                      4                      5                      6
                      A                      A                      A
 Frequencies --     69.3598                93.0837               132.9824
 Red. masses --      2.8415                 2.9022                 7.1070
 Frc consts  --      0.0081                 0.0148                 0.0740
 IR Inten    --      1.3842                 0.8093                 2.1890

                      7                      8                      9
                      A                      A                      A
 Frequencies --    142.1387               162.9146               201.3026
 Red. masses --      2.7372                 2.4655                 4.0011
 Frc consts  --      0.0326                 0.0386                 0.0955
 IR Inten    --      0.5814                 3.5750                 1.0307

                     10                     11                     12
                      A                      A                      A
 Frequencies --    240.0461               256.4833               264.5722
 Red. masses --      1.4454                 1.6318                 2.8600
 Frc consts  --      0.0491                 0.0632                 0.1180
 IR Inten    --      0.2592                 0.3993                 0.2447

                     13                     14                     15
                      A                      A                      A
 Frequencies --    291.3055               320.9765               368.0222
 Red. masses --      2.6024                 3.0409                 2.8205
 Frc consts  --      0.1301                 0.1846                 0.2251
 IR Inten    --      1.1726                 0.7433                 7.3280

                     16                     17                     18
                      A                      A                      A
 Frequencies --    391.6369               413.0224               447.0602
 Red. masses --      3.0482                 2.7211                 2.2606
 Frc consts  --      0.2755                 0.2735                 0.2662
 IR Inten    --      0.4867                 6.2877                 1.7237

                     19                     20                     21
                      A                      A                      A
 Frequencies --    464.0693               486.1133               531.3553
 Red. masses --      2.5959                 1.7961                 3.8595
 Frc consts  --      0.3294                 0.2501                 0.6420
 IR Inten    --      2.4625                 8.6557                 9.4773

                     22                     23                     24
                      A                      A                      A
 Frequencies --    548.2315               561.8962               570.8597
 Red. masses --      1.9146                 3.6790                 2.0980
 Frc consts  --      0.3390                 0.6844                 0.4028
 IR Inten    --     46.4906                 8.2347                33.0178

                     25                     26                     27
                      A                      A                      A
 Frequencies --    604.1987               641.7332               686.8497
 Red. masses --      2.0249                 1.3878                 4.4089
 Frc consts  --      0.4355                 0.3367                 1.2255
 IR Inten    --     73.9789                38.8669                37.3243

                     28                     29                     30
                      A                      A                      A
 Frequencies --    716.7489               785.3173               792.0741
 Red. masses --      3.5049                 4.3182                 3.2522
 Frc consts  --      1.0609                 1.5691                 1.2021
 IR Inten    --     25.5718                36.1299                 5.8598

                     31                     32                     33
                      A                      A                      A
 Frequencies --    822.3542               854.8997               879.7788
 Red. masses --      1.5734                 4.1136                 2.7045
 Frc consts  --      0.6269                 1.7714                 1.2333
 IR Inten    --      0.3932                 5.7838                 4.6347

                     34                     35                     36
                      A                      A                      A
 Frequencies --    900.1993               976.4701               998.1204
 Red. masses --      2.2161                 1.7662                 1.9806
 Frc consts  --      1.0581                 0.9922                 1.1626
 IR Inten    --      0.2015                 4.3079                31.6055

                     37                     38                     39
                      A                      A                      A
 Frequencies --   1001.4870              1016.7012              1048.5099
 Red. masses --      3.0198                 1.6952                 1.6723
 Frc consts  --      1.7845                 1.0324                 1.0832
 IR Inten    --      7.7438                 4.8239                12.1512

                     40                     41                     42
                      A                      A                      A
 Frequencies --   1052.9865              1074.9132              1118.4046
 Red. masses --      1.7153                 1.9206                 2.4092
 Frc consts  --      1.1206                 1.3075                 1.7755
 IR Inten    --      8.0131                15.5464                21.4953

                     43                     44                     45
                      A                      A                      A
 Frequencies --   1132.2881              1156.5382              1161.7221
 Red. masses --      3.0696                 2.6770                 1.2628
 Frc consts  --      2.3187                 2.1097                 1.0041
 IR Inten    --     97.3071                26.9939                 2.4617

                     46                     47                     48
                      A                      A                      A
 Frequencies --   1177.1923              1210.2613              1213.1008
 Red. masses --      2.4762                 1.6450                 2.0642
 Frc consts  --      2.0218                 1.4197                 1.7897
 IR Inten    --    178.6661                22.4948                 1.8033

                     49                     50                     51
                      A                      A                      A
 Frequencies --   1230.4071              1245.7609              1297.9911
 Red. masses --      2.0527                 1.1951                 1.7513
 Frc consts  --      1.8309                 1.0927                 1.7384
 IR Inten    --     10.8383                 8.5750                11.6049

                     52                     53                     54
                      A                      A                      A
 Frequencies --   1317.4312              1342.2886              1368.3404
 Red. masses --      1.4178                 2.0778                 1.6260
 Frc consts  --      1.4499                 2.2057                 1.7937
 IR Inten    --      4.5800                48.6536                 7.5142

                     55                     56                     57
                      A                      A                      A
 Frequencies --   1378.8665              1383.8303              1388.8620
 Red. masses --      1.7714                 1.3074                 1.7377
 Frc consts  --      1.9844                 1.4751                 1.9749
 IR Inten    --      6.8909                 8.7327                19.0660

                     58                     59                     60
                      A                      A                      A
 Frequencies --   1401.3056              1413.6657              1424.6539
 Red. masses --      1.2434                 1.3628                 1.4306
 Frc consts  --      1.4386                 1.6046                 1.7108
 IR Inten    --      7.8944                14.9951                27.0492

                     61                     62                     63
                      A                      A                      A
 Frequencies --   1430.4869              1438.4607              1475.7562
 Red. masses --      1.4212                 1.2787                 1.6776
 Frc consts  --      1.7135                 1.5589                 2.1526
 IR Inten    --     31.6241                 4.9281                24.5893

                     64                     65                     66
                      A                      A                      A
 Frequencies --   1492.6362              1500.8249              1509.6700
 Red. masses --      1.1313                 1.2170                 1.1018
 Frc consts  --      1.4850                 1.6151                 1.4795
 IR Inten    --     14.8781                12.6480                 5.5059

                     67                     68                     69
                      A                      A                      A
 Frequencies --   1513.1192              1516.4047              1522.5079
 Red. masses --      1.0834                 1.0887                 1.0771
 Frc consts  --      1.4615                 1.4751                 1.4711
 IR Inten    --      4.3471                 8.6375                11.0343

                     70                     71                     72
                      A                      A                      A
 Frequencies --   1525.0550              1526.9286              1535.0656
 Red. masses --      1.0555                 1.0603                 1.0779
 Frc consts  --      1.4464                 1.4566                 1.4965
 IR Inten    --      3.2392                 8.0595                10.1438

                     73                     74                     75
                      A                      A                      A
 Frequencies --   1549.0392              1774.8477              1832.3913
 Red. masses --      1.0682                 7.6513                 9.6922
 Frc consts  --      1.5102                14.2006                19.1738
 IR Inten    --     29.3540               265.2264               222.2771

                     76                     77                     78
                      A                      A                      A
 Frequencies --   3012.5332              3040.9523              3046.5199
 Red. masses --      1.0689                 1.0673                 1.0412
 Frc consts  --      5.7156                 5.8153                 5.6935
 IR Inten    --     42.8895                42.2966                29.2931

                     79                     80                     81
                      A                      A                      A
 Frequencies --   3051.1716              3059.0456              3063.2005
 Red. masses --      1.0342                 1.0589                 1.0621
 Frc consts  --      5.6728                 5.8383                 5.8719
 IR Inten    --     17.9382                36.1442                23.0864

                     82                     83                     84
                      A                      A                      A
 Frequencies --   3083.3256              3084.6853              3106.0686
 Red. masses --      1.0850                 1.0693                 1.1055
 Frc consts  --      6.0775                 5.9948                 6.2841
 IR Inten    --     77.3355                 3.8395                23.2975

                     85                     86                     87
                      A                      A                      A
 Frequencies --   3109.7964              3111.3344              3116.6436
 Red. masses --      1.0990                 1.1033                 1.0973
 Frc consts  --      6.2618                 6.2926                 6.2799
 IR Inten    --     20.5545                24.3216                29.1463

                     88                     89                     90
                      A                      A                      A
 Frequencies --   3123.6262              3129.2113              3140.1941
 Red. masses --      1.1030                 1.1034                 1.1017
 Frc consts  --      6.3406                 6.3658                 6.4005
 IR Inten    --     20.0141                23.8705                11.7091

                     91                     92                     93
                      A                      A                      A
 Frequencies --   3148.7395              3595.4171              3682.0508
 Red. masses --      1.1015                 1.0763                 1.0640
 Frc consts  --      6.4344                 8.1977                 8.4991
 IR Inten    --     16.5843                20.4960                48.2798

 - Thermochemistry -
 -------------------
 Temperature   298.150 Kelvin.  Pressure   1.00000 Atm.
 Atom     1 has atomic number  6 and mass  12.00000

 Molecular mass:   214.13174 amu.
 Principal axes and moments of inertia in atomic units:
                           1         2         3
     Eigenvalues --  1680.830854646.303734820.84516
           X            0.99973   0.01508  -0.01776
           Y           -0.01425   0.99884   0.04608
           Z            0.01843  -0.04582   0.99878
 This molecule is an asymmetric top.
 Rotational symmetry number  1.
 Warning -- assumption of classical behavior for rotation
           may cause significant error
 Rotational temperatures (Kelvin)      0.05153     0.01864     0.01797
 Rotational constants (GHZ):           1.07372     0.38843     0.37436
 Zero-point vibrational energy     754555.4 (Joules/Mol)
                                  180.34307 (Kcal/Mol)
 Warning -- explicit consideration of  25 degrees of freedom as
           vibrations may cause significant error
 Vibrational temperatures:     42.43    62.03    83.18    99.79   133.93
          (Kelvin)            191.33   204.51   234.40   289.63   345.37
                              369.02   380.66   419.12   461.81   529.50
                              563.48   594.25   643.22   667.69   699.41
                              764.50   788.78   808.44   821.34   869.31
                              923.31   988.22  1031.24  1129.90  1139.62
                             1183.18  1230.01  1265.81  1295.19  1404.92
                             1436.07  1440.92  1462.81  1508.57  1515.01
                             1546.56  1609.13  1629.11  1664.00  1671.46
                             1693.72  1741.30  1745.38  1770.28  1792.37
                             1867.52  1895.49  1931.25  1968.74  1983.88
                             1991.02  1998.26  2016.17  2033.95  2049.76
                             2058.15  2069.62  2123.28  2147.57  2159.35
                             2172.08  2177.04  2181.77  2190.55  2194.21
                             2196.91  2208.62  2228.72  2553.61  2636.40
                             4334.36  4375.25  4383.26  4389.96  4401.28
                             4407.26  4436.22  4438.17  4468.94  4474.30
                             4476.52  4484.16  4494.20  4502.24  4518.04
                             4530.33  5173.00  5297.65

 Zero-point correction=                           0.287395 (Hartree/Particle)
 Thermal correction to Energy=                    0.303042
 Thermal correction to Enthalpy=                  0.303986
 Thermal correction to Gibbs Free Energy=         0.243762
 Sum of electronic and zero-point Energies=           -726.866944
 Sum of electronic and thermal Energies=              -726.851297
 Sum of electronic and thermal Enthalpies=            -726.850353
 Sum of electronic and thermal Free Energies=         -726.910577

                     E (Thermal)             CV                S
                      KCal/Mol        Cal/Mol-Kelvin    Cal/Mol-Kelvin
 Total                  190.162             58.746            126.752
 Electronic               0.000              0.000              0.000
 Translational            0.889              2.981             41.988
 Rotational               0.889              2.981             31.999
 Vibrational            188.384             52.785             52.765
 Vibration     1          0.593              1.984              5.864
 Vibration     2          0.595              1.980              5.111
 Vibration     3          0.596              1.974              4.530
 Vibration     4          0.598              1.969              4.171
 Vibration     5          0.602              1.954              3.594
 Vibration     6          0.613              1.920              2.902
 Vibration     7          0.616              1.911              2.775
 Vibration     8          0.623              1.888              2.516
 Vibration     9          0.638              1.838              2.121
 Vibration    10          0.657              1.779              1.803
 Vibration    11          0.666              1.752              1.686
 Vibration    12          0.671              1.738              1.631
 Vibration    13          0.687              1.690              1.466
 Vibration    14          0.706              1.633              1.305
 Vibration    15          0.741              1.538              1.088
 Vibration    16          0.759              1.488              0.994
 Vibration    17          0.777              1.442              0.916
 Vibration    18          0.806              1.367              0.805
 Vibration    19          0.822              1.330              0.754
 Vibration    20          0.842              1.281              0.694
 Vibration    21          0.886              1.181              0.584
 Vibration    22          0.903              1.144              0.548
 Vibration    23          0.918              1.114              0.520
 Vibration    24          0.927              1.094              0.503
 Vibration    25          0.963              1.023              0.442

 Optimization completed.
    -- Stationary point found.
 Normal termination of Gaussian 16 at Thu Dec 10 18:16:02 2020.

 ----------------------------------------------------------------------
 # B3LYP/6-311++G(d,p) empiricaldispersion=gd3bj scf=xqc pop=npa geom=c
 heck
 ----------------------------------------------------------------------

 --------------------------------------
 CID_63125007_JID_5969_Energie_neutraal
 --------------------------------------
 Structure from the checkpoint file:  "JID_5969.chk"
 Charge =  0 Multiplicity = 1

 SCF Done:  E(RB3LYP) =  -727.374741941     A.U. after   14 cycles
 Normal termination of Gaussian 16 at Thu Dec 10 18:21:37 2020.

 ----------------------------------------------------------------------
 # B3LYP/6-311++G(d,p) empiricaldispersion=gd3bj scf=xqc pop=npa geom=c
 heck
 ----------------------------------------------------------------------

 ------------------------------------
 CID_63125007_JID_5969_Energie_kation
 ------------------------------------
 Structure from the checkpoint file:  "JID_5969.chk"
 Charge =  1 Multiplicity = 2

 SCF Done:  E(UB3LYP) =  -727.097915249     A.U. after   22 cycles
 Normal termination of Gaussian 16 at Thu Dec 10 18:34:03 2020.
 Gaussian 16:  ES64L-G16RevA.03 25-Dec-2016

 ----------------------------------------------------------------------
 # B3LYP/6-311++G(d,p) empiricaldispersion=gd3bj scf=xqc pop=npa geom=c
 heck
 ----------------------------------------------------------------------

 -----------------------------------
 CID_63125007_JID_5969_Energie_anion
 -----------------------------------
 Structure from the checkpoint file:  "JID_5969.chk"
 Charge = -1 Multiplicity = 2

                         Standard orientation:
 ---------------------------------------------------------------------
 Center     Atomic      Atomic             Coordinates (Angstroms)
 Number     Number       Type             X           Y           Z
 ---------------------------------------------------------------------
      1          6           0       -1.772681    0.874870    1.982829
      2          6           0       -1.432356    0.245782    0.615763
      3          6           0       -0.801272   -1.146626    0.810249
      4          6           0       -0.268427   -1.737523   -0.506931
      5          7           0        0.602210   -0.844060   -1.275979
      6          6           0        0.009658    0.474478   -1.459299
      7          6           0       -0.446085    1.150242   -0.156227
      8          6           0        2.029712   -0.896471   -0.999826
      9          6           0        2.490365   -0.510444    0.417986
     10          8           0        2.355578   -1.286927    1.359865
     11          7           0        3.031336    0.732271    0.611562
     12          6           0        3.361916    1.736562   -0.386825
     13          6           0       -2.753792    0.105794   -0.139770
     14          8           0       -3.408042   -0.908474   -0.251431
     15          8           0       -3.188055    1.286614   -0.658521
     16          1           0       -2.471391    0.242291    2.541224
     17          1           0       -0.856794    0.974521    2.574995
     18          1           0       -2.219486    1.867157    1.862552
     19          1           0        0.020077   -1.058585    1.525443
     20          1           0       -1.546041   -1.828040    1.233571
     21          1           0       -1.122352   -1.994785   -1.147786
     22          1           0        0.281267   -2.660000   -0.300382
     23          1           0       -0.865057    0.359350   -2.117409
     24          1           0        0.721281    1.108821   -1.999712
     25          1           0       -0.908212    2.118560   -0.373081
     26          1           0        0.419984    1.333895    0.490206
     27          1           0        2.357717   -1.933728   -1.127743
     28          1           0        2.537283   -0.293276   -1.760238
     29          1           0        3.327164    0.891933    1.566509
     30          1           0        3.771670    2.607801    0.128939
     31          1           0        4.113989    1.383760   -1.103249
     32          1           0        2.476775    2.064371   -0.940728
     33          1           0       -4.050766    1.088802   -1.069187
 ---------------------------------------------------------------------

 SCF Done:  E(UB3LYP) =  -727.366003013     A.U. after   30 cycles

 The electronic state is 2-A.
 Alpha  occ. eigenvalues --  -19.07910 -19.02724 -18.99248 -14.24252 -14.21309
 Alpha  occ. eigenvalues --  -10.21480 -10.17444 -10.11050 -10.10692 -10.10595
 Alpha  occ. eigenvalues --  -10.10046 -10.09657 -10.07966 -10.07259 -10.06658
 Alpha  occ. eigenvalues --   -1.02072  -0.94338  -0.93084  -0.83701  -0.82414
 Alpha  occ. eigenvalues --   -0.73849  -0.66170  -0.65060  -0.61214  -0.59658
 Alpha  occ. eigenvalues --   -0.56929  -0.54059  -0.51243  -0.48025  -0.46070
 Alpha  occ. eigenvalues --   -0.41557  -0.40268  -0.39854  -0.39561  -0.37774
 Alpha  occ. eigenvalues --   -0.37340  -0.36525  -0.35000  -0.34888  -0.34156
 Alpha  occ. eigenvalues --   -0.33378  -0.31866  -0.30900  -0.30468  -0.30055
 Alpha  occ. eigenvalues --   -0.29445  -0.29068  -0.28052  -0.27232  -0.25866
 Alpha  occ. eigenvalues --   -0.25422  -0.23772  -0.23571  -0.22415  -0.19081
 Alpha  occ. eigenvalues --   -0.17327  -0.16120  -0.11217   0.04009
 Alpha virt. eigenvalues --    0.05609   0.07177   0.07976   0.08266   0.08426
 Alpha virt. eigenvalues --    0.08680   0.09643   0.09822   0.10387   0.11013
 Alpha virt. eigenvalues --    0.11849   0.12214   0.12401   0.12803   0.13194

  Beta  occ. eigenvalues --  -19.07869 -19.02712 -18.99247 -14.24231 -14.21308
  Beta  occ. eigenvalues --  -10.21480 -10.17445 -10.11032 -10.10687 -10.10519
  Beta  occ. eigenvalues --  -10.10029 -10.09653 -10.07955 -10.07244 -10.06656
  Beta  occ. eigenvalues --   -1.02024  -0.94331  -0.93040  -0.83692  -0.82376
  Beta  occ. eigenvalues --   -0.73831  -0.66151  -0.65035  -0.61111  -0.59619
  Beta  occ. eigenvalues --   -0.56871  -0.54030  -0.51202  -0.47979  -0.46023
  Beta  occ. eigenvalues --   -0.41532  -0.40243  -0.39759  -0.39525  -0.37744
  Beta  occ. eigenvalues --   -0.37318  -0.36496  -0.34976  -0.34862  -0.34129
  Beta  occ. eigenvalues --   -0.33348  -0.31836  -0.30875  -0.30437  -0.30019
  Beta  occ. eigenvalues --   -0.29411  -0.29048  -0.28026  -0.27208  -0.25845
  Beta  occ. eigenvalues --   -0.25405  -0.23756  -0.23547  -0.22401  -0.19033
  Beta  occ. eigenvalues --   -0.17316  -0.16094  -0.11203
  Beta virt. eigenvalues --    0.06499   0.07193   0.07602   0.08093   0.08385
  Beta virt. eigenvalues --    0.09107   0.09175   0.09766   0.10245   0.10638
  Beta virt. eigenvalues --    0.11195   0.12242   0.12423   0.12574   0.13069

 Mulliken charges and spin densities:
               1          2
     1  C   -0.219343  -0.238614
     2  C    0.448666   0.200349
     3  C   -0.350284  -0.013888
     4  C   -0.416667  -0.081126
     5  N    0.045243   0.106133
     6  C    0.201011  -0.662455
     7  C   -0.204322  -0.168211
     8  C    0.125808  -0.603104
     9  C   -0.167142   0.201429
    10  O   -0.323378   0.017643
    11  N   -0.478663   0.285274
    12  C    1.739075  -2.110406
    13  C    0.028983  -0.446327
    14  O   -0.268205   0.017860
    15  O   -0.179316   0.054176
    16  H    0.121087   0.028116
    17  H    0.077616   0.076206
    18  H   -0.029689   0.186064
    19  H    0.244139  -0.038838
    20  H    0.191197   0.010829
    21  H    0.143133   0.037790
    22  H    0.187467  -0.011800
    23  H    0.107937   0.088273
    24  H   -0.293612   0.463427
    25  H   -0.067896   0.308764
    26  H    0.137625   0.035863
    27  H    0.076630   0.107847
    28  H    0.098236   0.055236
    29  H   -0.030438   0.348435
    30  H   -1.025584   1.193579
    31  H   -0.519698   0.690816
    32  H   -0.139063   0.309044
    33  H   -0.260553   0.551616
 Sum of Mulliken charges =  -1.00000   1.00000

 Dipole moment (field-independent basis, Debye):
    X=             -4.0237    Y=             -5.1629    Z=              1.0648  Tot=              6.6317
 Quadrupole moment (field-independent basis, Debye-Ang):
   XX=           -177.7003   YY=           -140.9550   ZZ=           -124.8198
   XY=            -15.4995   XZ=             -7.0117   YZ=              5.0618

 Summary of Natural Population Analysis:

                                       Natural Population
                Natural  -----------------------------------------------
    Atom  No    Charge         Core      Valence    Rydberg      Total
 -----------------------------------------------------------------------
      C    1   -0.27811      0.99963     2.27148    0.00700     3.27811
      C    2   -0.08061      0.99951     2.06859    0.01251     3.08061
      C    3   -0.20434      0.99959     2.19596    0.00878     3.20434
      C    4   -0.08376      0.99961     2.07415    0.01000     3.08376
      N    5   -0.27538      0.99973     2.76343    0.01222     3.77538
      C    6   -0.08402      0.99960     2.07223    0.01218     3.08402
      C    7   -0.20283      0.99959     2.19273    0.01051     3.20283
      C    8   -0.12176      0.99956     2.11069    0.01150     3.12176
      C    9    0.33127      0.99967     1.64578    0.02328     2.66873
      O   10   -0.33196      0.99988     3.32613    0.00595     4.33196
      N   11   -0.31729      0.99968     2.80579    0.01182     3.81729
      C   12   -0.18205      0.99963     2.17362    0.00880     3.18205
      C   13    0.41566      0.99962     1.55640    0.02832     2.58434
      O   14   -0.31041      0.99987     3.30434    0.00621     4.31041
      O   15   -0.34721      0.99988     3.33992    0.00741     4.34721
      H   16    0.10047      0.00000     0.39876    0.00078     0.39953
      H   17    0.10437      0.00000     0.39475    0.00088     0.39563
      H   18    0.10525      0.00000     0.39377    0.00098     0.39475
      H   19    0.11274      0.00000     0.38594    0.00133     0.38726
      H   20    0.10629      0.00000     0.39279    0.00092     0.39371
      H   21    0.09518      0.00000     0.40367    0.00115     0.40482
      H   22    0.10012      0.00000     0.39895    0.00093     0.39988
      H   23    0.09300      0.00000     0.40543    0.00157     0.40700
      H   24    0.09936      0.00000     0.39937    0.00127     0.40064
      H   25    0.11029      0.00000     0.38796    0.00175     0.38971
      H   26    0.10301      0.00000     0.39491    0.00207     0.39699
      H   27    0.10349      0.00000     0.39550    0.00101     0.39651
      H   28    0.10081      0.00000     0.39784    0.00135     0.39919
      H   29    0.19669      0.00000     0.30078    0.00253     0.30331
      H   30    0.10923      0.00000     0.38509    0.00568     0.39077
      H   31    0.09523      0.00000     0.40232    0.00244     0.40477
      H   32    0.09591      0.00000     0.40179    0.00231     0.40409
      H   33    0.24135      0.00000     0.24875    0.00990     0.25865
 =======================================================================
   * Total *   -0.00000     14.99506    42.78959    0.21535    58.00000

 Normal termination of Gaussian 16 at Thu Dec 10 18:50:53 2020.
