 Gaussian 16, Revision A.03,

 -----------------------------------------------------------
 # opt freq B3LYP/6-31G(d) empiricaldispersion=gd3bj scf=xqc
 -----------------------------------------------------------

 ------------------------------
 CID_65364919_JID_2998_neutraal
 ------------------------------
 Symbolic Z-matrix:
 Charge =  0 Multiplicity = 1

 SCF Done:  E(RB3LYP) =  -539.733770221     A.U. after   13 cycles
 SCF Done:  E(RB3LYP) =  -539.737510536     A.U. after   11 cycles
 SCF Done:  E(RB3LYP) =  -539.733079733     A.U. after   13 cycles
 SCF Done:  E(RB3LYP) =  -539.738570634     A.U. after   11 cycles
 SCF Done:  E(RB3LYP) =  -539.739635066     A.U. after   11 cycles
 SCF Done:  E(RB3LYP) =  -539.739877337     A.U. after   10 cycles
 SCF Done:  E(RB3LYP) =  -539.739916159     A.U. after    9 cycles
 SCF Done:  E(RB3LYP) =  -539.739916847     A.U. after    9 cycles
 SCF Done:  E(RB3LYP) =  -539.739929507     A.U. after    9 cycles
 SCF Done:  E(RB3LYP) =  -539.739930116     A.U. after    7 cycles
 SCF Done:  E(RB3LYP) =  -539.739930204     A.U. after    7 cycles
 SCF Done:  E(RB3LYP) =  -539.739930262     A.U. after    6 cycles
 SCF Done:  E(RB3LYP) =  -539.739930306     A.U. after    6 cycles
 Optimization completed.
    -- Stationary point found.
 Normal termination of Gaussian 16 at Wed Dec  9 18:27:01 2020.

 --------------------------------------------------------------------
 #N Geom=AllCheck Guess=TCheck SCRF=Check GenChk RB3LYP/6-31G(d) Freq
 --------------------------------------------------------------------

 Structure from the checkpoint file:  "JID_2998.chk"
 ------------------------------
 CID_65364919_JID_2998_neutraal
 ------------------------------
 Charge =  0 Multiplicity = 1

 SCF Done:  E(RB3LYP) =  -539.739930306     A.U. after    1 cycles

  Exact polarizability: 124.067  -4.528 107.049  -0.099   0.141 101.867
 Approx polarizability: 152.239  -3.547 149.395  -0.388  -0.624 148.901

                      1                      2                      3
                      A                      A                      A
 Frequencies --     42.6962                62.6040                82.7742
 Red. masses --      3.8272                 2.7338                 2.6136
 Frc consts  --      0.0041                 0.0063                 0.0106
 IR Inten    --      0.0958                 0.2364                 1.9775

                      4                      5                      6
                      A                      A                      A
 Frequencies --    120.1657               132.0919               163.4939
 Red. masses --      2.0821                 2.0936                 2.8452
 Frc consts  --      0.0177                 0.0215                 0.0448
 IR Inten    --      1.4605                 2.3240                 1.5598

                      7                      8                      9
                      A                      A                      A
 Frequencies --    192.7188               228.5224               238.6340
 Red. masses --      1.8383                 1.3830                 2.9858
 Frc consts  --      0.0402                 0.0426                 0.1002
 IR Inten    --      2.7264                 2.9641                 2.3758

                     10                     11                     12
                      A                      A                      A
 Frequencies --    268.5678               296.4336               324.3510
 Red. masses --      1.8821                 2.0979                 3.0432
 Frc consts  --      0.0800                 0.1086                 0.1886
 IR Inten    --      1.0202                 4.8496                 0.9051

                     13                     14                     15
                      A                      A                      A
 Frequencies --    359.5159               388.6401               406.4560
 Red. masses --      2.0062                 1.8693                 2.2205
 Frc consts  --      0.1528                 0.1664                 0.2161
 IR Inten    --      2.2342                14.3842                 3.0990

                     16                     17                     18
                      A                      A                      A
 Frequencies --    407.6234               464.1895               489.4656
 Red. masses --      2.2026                 2.3816                 2.4968
 Frc consts  --      0.2156                 0.3023                 0.3524
 IR Inten    --      1.4293                 0.9156                 0.6292

                     19                     20                     21
                      A                      A                      A
 Frequencies --    641.9847               643.6657               729.5924
 Red. masses --      1.5577                 2.9531                 3.0336
 Frc consts  --      0.3782                 0.7209                 0.9514
 IR Inten    --     95.9821                47.5519                41.2465

                     22                     23                     24
                      A                      A                      A
 Frequencies --    748.0397               794.6322               819.1717
 Red. masses --      2.4032                 2.9611                 1.5671
 Frc consts  --      0.7923                 1.1016                 0.6196
 IR Inten    --      2.3694                 5.0645                 1.3375

                     25                     26                     27
                      A                      A                      A
 Frequencies --    889.2934               930.0716               952.2325
 Red. masses --      2.1370                 2.4331                 2.5042
 Frc consts  --      0.9958                 1.2401                 1.3379
 IR Inten    --      1.3435                 6.8949                23.3992

                     28                     29                     30
                      A                      A                      A
 Frequencies --    954.4315               994.1436              1028.6302
 Red. masses --      3.1071                 2.0955                 2.2372
 Frc consts  --      1.6676                 1.2202                 1.3947
 IR Inten    --     54.8147                16.0865                12.2921

                     31                     32                     33
                      A                      A                      A
 Frequencies --   1040.9957              1063.2837              1079.7018
 Red. masses --      1.4973                 1.7924                 2.1408
 Frc consts  --      0.9560                 1.1940                 1.4704
 IR Inten    --      0.1556                 6.7276                 4.2834

                     34                     35                     36
                      A                      A                      A
 Frequencies --   1119.1033              1119.9669              1132.6272
 Red. masses --      1.7826                 2.2664                 4.1954
 Frc consts  --      1.3153                 1.6749                 3.1710
 IR Inten    --     23.8770               112.4891               142.0189

                     37                     38                     39
                      A                      A                      A
 Frequencies --   1161.4587              1165.8641              1187.6524
 Red. masses --      1.4234                 1.4405                 1.7129
 Frc consts  --      1.1313                 1.1536                 1.4235
 IR Inten    --      5.1973                 4.2018                12.8406

                     40                     41                     42
                      A                      A                      A
 Frequencies --   1196.5256              1199.8370              1216.8867
 Red. masses --      1.7028                 1.6270                 1.8180
 Frc consts  --      1.4364                 1.3800                 1.5862
 IR Inten    --     14.5082                32.6668                60.5358

                     43                     44                     45
                      A                      A                      A
 Frequencies --   1236.3734              1241.7045              1258.7281
 Red. masses --      1.4301                 1.4835                 1.4326
 Frc consts  --      1.2880                 1.3476                 1.3373
 IR Inten    --      7.6025                11.9068                17.8995

                     46                     47                     48
                      A                      A                      A
 Frequencies --   1303.2587              1336.0505              1357.6884
 Red. masses --      1.3136                 1.3250                 1.5652
 Frc consts  --      1.3145                 1.3935                 1.6998
 IR Inten    --      0.6172                 3.3858                12.7483

                     49                     50                     51
                      A                      A                      A
 Frequencies --   1358.5464              1374.3006              1383.6405
 Red. masses --      1.5128                 1.3680                 1.2895
 Frc consts  --      1.6451                 1.5222                 1.4545
 IR Inten    --     16.5477                 1.5769                 1.0335

                     52                     53                     54
                      A                      A                      A
 Frequencies --   1388.8322              1407.6492              1419.3426
 Red. masses --      1.3576                 1.3314                 1.4115
 Frc consts  --      1.5428                 1.5544                 1.6754
 IR Inten    --      0.8216                26.5895                10.3791

                     55                     56                     57
                      A                      A                      A
 Frequencies --   1431.8349              1435.0863              1453.6376
 Red. masses --      1.3775                 1.2442                 1.3103
 Frc consts  --      1.6639                 1.5098                 1.6313
 IR Inten    --     22.7626                55.5174                 5.7421

                     58                     59                     60
                      A                      A                      A
 Frequencies --   1480.5117              1497.2752              1502.7290
 Red. masses --      1.1112                 1.1063                 1.1062
 Frc consts  --      1.4350                 1.4612                 1.4718
 IR Inten    --      0.9065                 5.7485                 5.4639

                     61                     62                     63
                      A                      A                      A
 Frequencies --   1504.6480              1515.5131              1516.1454
 Red. masses --      1.1705                 1.0470                 1.0955
 Frc consts  --      1.5613                 1.4168                 1.4837
 IR Inten    --      0.3481                 4.2301                10.9963

                     64                     65                     66
                      A                      A                      A
 Frequencies --   1521.5169              1525.8365              1531.1119
 Red. masses --      1.1169                 1.1611                 1.1021
 Frc consts  --      1.5234                 1.5927                 1.5223
 IR Inten    --      0.1287                 2.9370                 9.3900

                     67                     68                     69
                      A                      A                      A
 Frequencies --   1534.4034              1544.9022              1549.8222
 Red. masses --      1.1053                 1.0770                 1.1102
 Frc consts  --      1.5333                 1.5145                 1.5711
 IR Inten    --      4.6813                 1.1595                 4.8732

                     70                     71                     72
                      A                      A                      A
 Frequencies --   1571.5598              2975.1388              2988.1839
 Red. masses --      1.0608                 1.0444                 1.0470
 Frc consts  --      1.5437                 5.4465                 5.5082
 IR Inten    --      6.0042                28.6171               134.6696

                     73                     74                     75
                      A                      A                      A
 Frequencies --   3000.9191              3005.9047              3017.3566
 Red. masses --      1.0721                 1.0500                 1.1057
 Frc consts  --      5.6887                 5.5900                 5.9314
 IR Inten    --      8.6080                56.1900                72.6862

                     76                     77                     78
                      A                      A                      A
 Frequencies --   3020.8292              3021.2181              3029.6783
 Red. masses --      1.0667                 1.1056                 1.0637
 Frc consts  --      5.7352                 5.9460                 5.7528
 IR Inten    --     39.5901                28.9072                41.0663

                     79                     80                     81
                      A                      A                      A
 Frequencies --   3034.6161              3040.8133              3048.5852
 Red. masses --      1.0617                 1.0644                 1.0610
 Frc consts  --      5.7608                 5.7990                 5.8099
 IR Inten    --     43.8868                95.0255                31.7157

                     82                     83                     84
                      A                      A                      A
 Frequencies --   3059.3223              3062.3882              3067.6761
 Red. masses --      1.1025                 1.0906                 1.0983
 Frc consts  --      6.0796                 6.0260                 6.0895
 IR Inten    --     23.3531                78.9836                63.3558

                     85                     86                     87
                      A                      A                      A
 Frequencies --   3070.9149              3080.9895              3086.3396
 Red. masses --      1.1008                 1.1033                 1.1032
 Frc consts  --      6.1165                 6.1703                 6.1917
 IR Inten    --     16.9341                22.9823                85.5735

                     88                     89                     90
                      A                      A                      A
 Frequencies --   3105.1080              3134.2527              3541.4777
 Red. masses --      1.1011                 1.0957                 1.0738
 Frc consts  --      6.2549                 6.3419                 7.9347
 IR Inten    --     30.3799                31.3938                 0.3091

 - Thermochemistry -
 -------------------
 Temperature   298.150 Kelvin.  Pressure   1.00000 Atm.
 Atom     1 has atomic number  6 and mass  12.00000

 Molecular mass:   172.15756 amu.
 Principal axes and moments of inertia in atomic units:
                           1         2         3
     Eigenvalues --  1341.727762983.802323522.17581
           X            0.99995  -0.00931   0.00240
           Y            0.00928   0.99989   0.01131
           Z           -0.00250  -0.01129   0.99993
 This molecule is an asymmetric top.
 Rotational symmetry number  1.
 Warning -- assumption of classical behavior for rotation
           may cause significant error
 Rotational temperatures (Kelvin)      0.06455     0.02903     0.02459
 Rotational constants (GHZ):           1.34509     0.60485     0.51239
 Zero-point vibrational energy     777890.3 (Joules/Mol)
                                  185.92024 (Kcal/Mol)
 Warning -- explicit consideration of  18 degrees of freedom as
           vibrations may cause significant error
 Vibrational temperatures:     61.43    90.07   119.09   172.89   190.05
          (Kelvin)            235.23   277.28   328.79   343.34   386.41
                              426.50   466.67   517.26   559.17   584.80
                              586.48   667.87   704.23   923.67   926.09
                             1049.72  1076.26  1143.30  1178.61  1279.49
                             1338.17  1370.05  1373.21  1430.35  1479.97
                             1497.76  1529.83  1553.45  1610.14  1611.38
                             1629.60  1671.08  1677.42  1708.77  1721.53
                             1726.30  1750.83  1778.87  1786.54  1811.03
                             1875.10  1922.28  1953.41  1954.65  1977.31
                             1990.75  1998.22  2025.29  2042.12  2060.09
                             2064.77  2091.46  2130.13  2154.25  2162.09
                             2164.85  2180.49  2181.40  2189.12  2195.34
                             2202.93  2207.66  2222.77  2229.85  2261.12
                             4280.56  4299.33  4317.65  4324.83  4341.30
                             4346.30  4346.86  4359.03  4366.14  4375.05
                             4386.23  4401.68  4406.09  4413.70  4418.36
                             4432.86  4440.55  4467.56  4509.49  5095.40

 Zero-point correction=                           0.296283 (Hartree/Particle)
 Thermal correction to Energy=                    0.309508
 Thermal correction to Enthalpy=                  0.310452
 Thermal correction to Gibbs Free Energy=         0.256582
 Sum of electronic and zero-point Energies=           -539.443648
 Sum of electronic and thermal Energies=              -539.430422
 Sum of electronic and thermal Enthalpies=            -539.429478
 Sum of electronic and thermal Free Energies=         -539.483348

                     E (Thermal)             CV                S
                      KCal/Mol        Cal/Mol-Kelvin    Cal/Mol-Kelvin
 Total                  194.219             49.671            113.380
 Electronic               0.000              0.000              0.000
 Translational            0.889              2.981             41.337
 Rotational               0.889              2.981             31.023
 Vibrational            192.442             43.709             41.020
 Vibration     1          0.595              1.980              5.130
 Vibration     2          0.597              1.972              4.373
 Vibration     3          0.600              1.961              3.824
 Vibration     4          0.609              1.932              3.098
 Vibration     5          0.612              1.921              2.915
 Vibration     6          0.623              1.887              2.509
 Vibration     7          0.635              1.850              2.202
 Vibration     8          0.651              1.797              1.891
 Vibration     9          0.657              1.781              1.813
 Vibration    10          0.673              1.731              1.605
 Vibration    11          0.690              1.680              1.437
 Vibration    12          0.709              1.627              1.288
 Vibration    13          0.734              1.556              1.124
 Vibration    14          0.757              1.494              1.005
 Vibration    15          0.771              1.456              0.939
 Vibration    16          0.772              1.454              0.935
 Vibration    17          0.822              1.329              0.754
 Vibration    18          0.845              1.273              0.685

 Optimization completed.
    -- Stationary point found.
 Normal termination of Gaussian 16 at Wed Dec  9 18:36:22 2020.

 ----------------------------------------------------------------------
 # B3LYP/6-311++G(d,p) empiricaldispersion=gd3bj scf=xqc pop=npa geom=c
 heck
 ----------------------------------------------------------------------

 --------------------------------------
 CID_65364919_JID_2998_Energie_neutraal
 --------------------------------------
 Structure from the checkpoint file:  "JID_2998.chk"
 Charge =  0 Multiplicity = 1

 SCF Done:  E(RB3LYP) =  -539.897154387     A.U. after   13 cycles
 Normal termination of Gaussian 16 at Wed Dec  9 18:40:21 2020.

 ----------------------------------------------------------------------
 # B3LYP/6-311++G(d,p) empiricaldispersion=gd3bj scf=xqc pop=npa geom=c
 heck
 ----------------------------------------------------------------------

 ------------------------------------
 CID_65364919_JID_2998_Energie_kation
 ------------------------------------
 Structure from the checkpoint file:  "JID_2998.chk"
 Charge =  1 Multiplicity = 2

 SCF Done:  E(UB3LYP) =  -539.615057798     A.U. after   18 cycles
 Normal termination of Gaussian 16 at Wed Dec  9 18:47:54 2020.
 Gaussian 16:  ES64L-G16RevA.03 25-Dec-2016

 ----------------------------------------------------------------------
 # B3LYP/6-311++G(d,p) empiricaldispersion=gd3bj scf=xqc pop=npa geom=c
 heck
 ----------------------------------------------------------------------

 -----------------------------------
 CID_65364919_JID_2998_Energie_anion
 -----------------------------------
 Structure from the checkpoint file:  "JID_2998.chk"
 Charge = -1 Multiplicity = 2

                         Standard orientation:
 ---------------------------------------------------------------------
 Center     Atomic      Atomic             Coordinates (Angstroms)
 Number     Number       Type             X           Y           Z
 ---------------------------------------------------------------------
      1          6           0        1.138537    2.387879    0.360895
      2          7           0        2.109472    1.685911   -0.462109
      3          6           0        2.752899    0.478986    0.036091
      4          6           0        2.056019   -0.918054    0.054192
      5          6           0        1.260839   -1.235719   -1.225732
      6          6           0       -0.157049   -0.659819   -1.207306
      7          7           0       -0.886407   -1.120156   -0.020500
      8          6           0       -0.234279   -0.733267    1.236825
      9          6           0        1.197438   -1.261400    1.288103
     10          6           0       -2.271283   -0.795915   -0.053513
     11          8           0       -2.480224    0.620987   -0.020620
     12          6           0       -3.846040    0.963529   -0.040084
     13          1           0        1.501433    2.406626    1.394953
     14          1           0        0.120378    1.969301    0.368836
     15          1           0        1.063417    3.428456    0.020888
     16          1           0        1.774932    1.564547   -1.412382
     17          1           0        3.653024    0.348914   -0.581346
     18          1           0        3.111308    0.698508    1.051218
     19          1           0        2.906267   -1.614588    0.085340
     20          1           0        1.793921   -0.867068   -2.112729
     21          1           0        1.180617   -2.324753   -1.330352
     22          1           0       -0.130178    0.437570   -1.261747
     23          1           0       -0.707549   -1.008751   -2.089454
     24          1           0       -0.814768   -1.171322    2.058074
     25          1           0       -0.251070    0.354058    1.383346
     26          1           0        1.145710   -2.355305    1.363734
     27          1           0        1.685893   -0.899576    2.202116
     28          1           0       -2.720121   -1.204795   -0.973523
     29          1           0       -2.772835   -1.254460    0.814280
     30          1           0       -4.347078    0.600230   -0.952970
     31          1           0       -4.384210    0.552664    0.830478
     32          1           0       -3.911249    2.054241   -0.012365
 ---------------------------------------------------------------------

 SCF Done:  E(UB3LYP) =  -539.881134511     A.U. after   28 cycles

 The electronic state is 2-A.
 Alpha  occ. eigenvalues --  -19.01974 -14.20240 -14.19451 -10.13377 -10.10894
 Alpha  occ. eigenvalues --  -10.08941 -10.08507 -10.08444 -10.08329 -10.06762
 Alpha  occ. eigenvalues --  -10.06143 -10.06033  -0.93734  -0.82301  -0.79817
 Alpha  occ. eigenvalues --   -0.69948  -0.65140  -0.62333  -0.59289  -0.55785
 Alpha  occ. eigenvalues --   -0.53139  -0.52589  -0.49059  -0.43617  -0.40487
 Alpha  occ. eigenvalues --   -0.38933  -0.38409  -0.38073  -0.36837  -0.34800
 Alpha  occ. eigenvalues --   -0.34201  -0.32727  -0.32197  -0.31345  -0.30812
 Alpha  occ. eigenvalues --   -0.29066  -0.28650  -0.27500  -0.26560  -0.25630
 Alpha  occ. eigenvalues --   -0.24436  -0.23092  -0.22792  -0.20982  -0.20490
 Alpha  occ. eigenvalues --   -0.16016  -0.12432  -0.11537   0.04525
 Alpha virt. eigenvalues --    0.06299   0.07324   0.07718   0.08532   0.09064
 Alpha virt. eigenvalues --    0.09501   0.10034   0.10236   0.11314   0.11541
 Alpha virt. eigenvalues --    0.11649   0.12752   0.12858   0.13242   0.13287

  Beta  occ. eigenvalues --  -19.01966 -14.20236 -14.19444 -10.13355 -10.10852
  Beta  occ. eigenvalues --  -10.08925 -10.08493 -10.08433 -10.08316 -10.06755
  Beta  occ. eigenvalues --  -10.06122 -10.06017  -0.93718  -0.82284  -0.79800
  Beta  occ. eigenvalues --   -0.69915  -0.65111  -0.62298  -0.59242  -0.55729
  Beta  occ. eigenvalues --   -0.53085  -0.52541  -0.49016  -0.43581  -0.40447
  Beta  occ. eigenvalues --   -0.38865  -0.38386  -0.38039  -0.36797  -0.34779
  Beta  occ. eigenvalues --   -0.34176  -0.32687  -0.32176  -0.31314  -0.30784
  Beta  occ. eigenvalues --   -0.29035  -0.28619  -0.27471  -0.26531  -0.25595
  Beta  occ. eigenvalues --   -0.24412  -0.23044  -0.22751  -0.20941  -0.20456
  Beta  occ. eigenvalues --   -0.15993  -0.12412  -0.11521
  Beta virt. eigenvalues --    0.06651   0.07315   0.08016   0.08056   0.09100
  Beta virt. eigenvalues --    0.09790   0.09976   0.10328   0.10593   0.11725
  Beta virt. eigenvalues --    0.11988   0.12108   0.13011   0.13138   0.13527

 Mulliken charges and spin densities:
               1          2
     1  C   -0.061813  -0.371789
     2  N   -0.195334   0.026409
     3  C    0.539714  -1.225003
     4  C   -0.871899   1.503403
     5  C    0.623879  -1.281748
     6  C   -0.077441  -0.254478
     7  N    0.081905   0.040577
     8  C   -0.433441   0.230087
     9  C    1.016395  -1.763045
    10  C   -0.043414  -0.148675
    11  O   -0.205857   0.079014
    12  C    0.910168  -1.163971
    13  H   -0.049466   0.189623
    14  H    0.176261  -0.049890
    15  H    0.033706   0.114447
    16  H    0.101685   0.122254
    17  H   -0.168925   0.343176
    18  H   -0.116865   0.250901
    19  H   -0.359048   0.568225
    20  H   -0.181104   0.359095
    21  H   -0.116074   0.269622
    22  H    0.025530   0.110031
    23  H   -0.296970   0.445399
    24  H   -0.270622   0.442243
    25  H    0.122550  -0.003638
    26  H   -0.028221   0.178943
    27  H   -0.079770   0.230301
    28  H   -0.096026   0.242741
    29  H   -0.067042   0.207209
    30  H   -0.367402   0.498460
    31  H   -0.317588   0.448877
    32  H   -0.227470   0.361201
 Sum of Mulliken charges =  -1.00000   1.00000

 Dipole moment (field-independent basis, Debye):
    X=              1.7688    Y=              1.1147    Z=              0.7372  Tot=              2.2169
 Quadrupole moment (field-independent basis, Debye-Ang):
   XX=           -152.6975   YY=           -116.9562   ZZ=           -114.5486
   XY=              4.4740   XZ=              0.7224   YZ=              0.3203

 Summary of Natural Population Analysis:

                                       Natural Population
                Natural  -----------------------------------------------
    Atom  No    Charge         Core      Valence    Rydberg      Total
 -----------------------------------------------------------------------
      C    1   -0.17841      0.99965     2.17177    0.00699     3.17841
      N    2   -0.34488      0.99975     2.83385    0.01127     3.84488
      C    3   -0.08293      0.99959     2.06946    0.01387     3.08293
      C    4   -0.11851      0.99958     2.10758    0.01135     3.11851
      C    5   -0.19520      0.99961     2.18490    0.01070     3.19520
      C    6   -0.08605      0.99960     2.07422    0.01223     3.08605
      N    7   -0.28074      0.99970     2.76710    0.01394     3.78074
      C    8   -0.08690      0.99959     2.07550    0.01181     3.08690
      C    9   -0.19227      0.99961     2.18285    0.00981     3.19227
      C   10    0.08743      0.99959     1.89807    0.01491     2.91257
      O   11   -0.30832      0.99988     3.29952    0.00892     4.30832
      C   12   -0.09993      0.99963     2.09059    0.00971     3.09993
      H   13    0.09016      0.00000     0.40878    0.00105     0.40984
      H   14    0.08634      0.00000     0.41175    0.00192     0.41366
      H   15    0.08930      0.00000     0.40966    0.00104     0.41070
      H   16    0.17262      0.00000     0.32442    0.00297     0.32738
      H   17    0.09265      0.00000     0.40602    0.00133     0.40735
      H   18    0.08984      0.00000     0.40907    0.00110     0.41016
      H   19    0.10008      0.00000     0.39774    0.00218     0.39992
      H   20    0.09782      0.00000     0.40101    0.00117     0.40218
      H   21    0.10108      0.00000     0.39724    0.00167     0.39892
      H   22    0.08479      0.00000     0.41281    0.00240     0.41521
      H   23    0.09718      0.00000     0.40149    0.00133     0.40282
      H   24    0.09598      0.00000     0.40271    0.00131     0.40402
      H   25    0.08635      0.00000     0.41109    0.00255     0.41365
      H   26    0.09901      0.00000     0.39943    0.00156     0.40099
      H   27    0.09781      0.00000     0.40117    0.00102     0.40219
      H   28    0.07972      0.00000     0.41855    0.00173     0.42028
      H   29    0.07927      0.00000     0.41901    0.00171     0.42073
      H   30    0.07842      0.00000     0.41947    0.00211     0.42158
      H   31    0.07793      0.00000     0.42006    0.00201     0.42207
      H   32    0.09036      0.00000     0.40847    0.00117     0.40964
 =======================================================================
   * Total *    0.00000     11.99578    35.83538    0.16884    48.00000

 Normal termination of Gaussian 16 at Wed Dec  9 18:59:32 2020.
