 Gaussian 16, Revision A.03,

 -----------------------------------------------------------
 # opt freq B3LYP/6-31G(d) empiricaldispersion=gd3bj scf=xqc
 -----------------------------------------------------------

 ------------------------------
 CID_65272308_JID_3465_neutraal
 ------------------------------
 Symbolic Z-matrix:
 Charge =  0 Multiplicity = 1

 SCF Done:  E(RB3LYP) =  -931.715314619     A.U. after   15 cycles
 SCF Done:  E(RB3LYP) =  -931.719593668     A.U. after   13 cycles
 SCF Done:  E(RB3LYP) =  -931.720306252     A.U. after   12 cycles
 SCF Done:  E(RB3LYP) =  -931.720431933     A.U. after   11 cycles
 SCF Done:  E(RB3LYP) =  -931.720750536     A.U. after   12 cycles
 SCF Done:  E(RB3LYP) =  -931.720958440     A.U. after   11 cycles
 SCF Done:  E(RB3LYP) =  -931.721179227     A.U. after   12 cycles
 SCF Done:  E(RB3LYP) =  -931.721266897     A.U. after   10 cycles
 SCF Done:  E(RB3LYP) =  -931.721328773     A.U. after   11 cycles
 SCF Done:  E(RB3LYP) =  -931.721345862     A.U. after   10 cycles
 SCF Done:  E(RB3LYP) =  -931.725485935     A.U. after   12 cycles
 SCF Done:  E(RB3LYP) =  -931.725524022     A.U. after   11 cycles
 SCF Done:  E(RB3LYP) =  -931.725532155     A.U. after   10 cycles
 SCF Done:  E(RB3LYP) =  -931.725532590     A.U. after    8 cycles
 SCF Done:  E(RB3LYP) =  -931.725532663     A.U. after    7 cycles
 Optimization completed.
    -- Stationary point found.
 Normal termination of Gaussian 16 at Wed Dec  9 23:46:10 2020.

 --------------------------------------------------------------------
 #N Geom=AllCheck Guess=TCheck SCRF=Check GenChk RB3LYP/6-31G(d) Freq
 --------------------------------------------------------------------

 Structure from the checkpoint file:  "JID_3465.chk"
 ------------------------------
 CID_65272308_JID_3465_neutraal
 ------------------------------
 Charge =  0 Multiplicity = 1

 SCF Done:  E(RB3LYP) =  -931.725532663     A.U. after    1 cycles

  Exact polarizability: 161.661  -9.077 124.192  11.942   4.592  97.454
 Approx polarizability: 207.692  -9.972 206.030  29.023  19.043 153.079

                      1                      2                      3
                      A                      A                      A
 Frequencies --     22.9821                29.0607                51.1829
 Red. masses --      4.3994                 3.6034                 2.8869
 Frc consts  --      0.0014                 0.0018                 0.0045
 IR Inten    --      1.1360                 0.3359                 0.2842

                      4                      5                      6
                      A                      A                      A
 Frequencies --     59.6731                93.7123               134.6107
 Red. masses --      2.8699                 3.2501                 3.4435
 Frc consts  --      0.0060                 0.0168                 0.0368
 IR Inten    --      0.2307                 0.9788                 1.1199

                      7                      8                      9
                      A                      A                      A
 Frequencies --    147.3172               213.5218               239.8653
 Red. masses --      3.8800                 1.2792                 1.7710
 Frc consts  --      0.0496                 0.0344                 0.0600
 IR Inten    --      1.6863                 1.3472                 0.1514

                     10                     11                     12
                      A                      A                      A
 Frequencies --    249.1294               261.1065               290.9653
 Red. masses --      1.0980                 1.9718                 2.1009
 Frc consts  --      0.0402                 0.0792                 0.1048
 IR Inten    --      0.5522                 2.1405                 2.1845

                     13                     14                     15
                      A                      A                      A
 Frequencies --    329.5287               354.8524               382.6638
 Red. masses --      2.4186                 3.3378                 3.4423
 Frc consts  --      0.1547                 0.2476                 0.2970
 IR Inten    --      9.4431                 5.1699                 9.5601

                     16                     17                     18
                      A                      A                      A
 Frequencies --    419.8169               432.2969               463.2910
 Red. masses --      2.0088                 2.0413                 2.8311
 Frc consts  --      0.2086                 0.2248                 0.3580
 IR Inten    --      0.5500                 2.0091                10.7892

                     19                     20                     21
                      A                      A                      A
 Frequencies --    534.5031               554.4012               568.7996
 Red. masses --      2.7834                 3.5823                 6.0149
 Frc consts  --      0.4685                 0.6487                 1.1466
 IR Inten    --     30.1917                 8.0376                 0.3618

                     22                     23                     24
                      A                      A                      A
 Frequencies --    608.2800               684.5096               711.5917
 Red. masses --      4.7837                 3.5783                 2.2933
 Frc consts  --      1.0428                 0.9878                 0.6842
 IR Inten    --      5.6080                58.4468                48.0372

                     25                     26                     27
                      A                      A                      A
 Frequencies --    736.8824               766.1750               803.5782
 Red. masses --      4.8735                 5.7682                 2.5421
 Frc consts  --      1.5591                 1.9950                 0.9671
 IR Inten    --     16.5179                10.9270                18.9376

                     28                     29                     30
                      A                      A                      A
 Frequencies --    815.9590               901.1476               959.6164
 Red. masses --      1.3943                 2.2701                 2.6730
 Frc consts  --      0.5470                 1.0861                 1.4503
 IR Inten    --      4.0826                 3.8818                 2.1317

                     31                     32                     33
                      A                      A                      A
 Frequencies --    966.6977              1027.9165              1068.6820
 Red. masses --      2.4590                 3.2439                 2.1105
 Frc consts  --      1.3539                 2.0195                 1.4202
 IR Inten    --     22.7664                14.1531                45.5032

                     34                     35                     36
                      A                      A                      A
 Frequencies --   1077.6962              1080.4067              1092.7483
 Red. masses --      2.2134                 1.4528                 1.9622
 Frc consts  --      1.5146                 0.9991                 1.3805
 IR Inten    --     39.4416                 3.6467                31.6974

                     37                     38                     39
                      A                      A                      A
 Frequencies --   1110.9124              1132.3977              1141.2370
 Red. masses --      1.5687                 1.4663                 2.1320
 Frc consts  --      1.1406                 1.1078                 1.6360
 IR Inten    --      5.4186                 9.2790                 8.5957

                     40                     41                     42
                      A                      A                      A
 Frequencies --   1192.8526              1210.3820              1272.5308
 Red. masses --      1.4620                 1.8365                 1.8711
 Frc consts  --      1.2257                 1.5852                 1.7852
 IR Inten    --      2.9695                24.6244                51.0071

                     43                     44                     45
                      A                      A                      A
 Frequencies --   1290.1008              1314.5512              1329.1395
 Red. masses --      1.3321                 2.4832                 1.5786
 Frc consts  --      1.3063                 2.5283                 1.6431
 IR Inten    --     10.1901                 3.5788                28.1934

                     46                     47                     48
                      A                      A                      A
 Frequencies --   1348.8138              1349.9892              1387.0545
 Red. masses --      1.9646                 1.9425                 2.0282
 Frc consts  --      2.1059                 2.0858                 2.2990
 IR Inten    --     59.6010                42.3098               122.0818

                     49                     50                     51
                      A                      A                      A
 Frequencies --   1395.1315              1425.3056              1434.0915
 Red. masses --      1.6869                 1.3474                 1.2472
 Frc consts  --      1.9345                 1.6127                 1.5113
 IR Inten    --      6.4842                 8.2705                 5.8117

                     52                     53                     54
                      A                      A                      A
 Frequencies --   1467.5902              1470.4686              1496.7013
 Red. masses --      1.4179                 1.2329                 1.1604
 Frc consts  --      1.7994                 1.5707                 1.5315
 IR Inten    --     19.2109                 5.7506                 0.4695

                     55                     56                     57
                      A                      A                      A
 Frequencies --   1505.1058              1514.1072              1517.5171
 Red. masses --      1.1030                 1.0493                 1.0771
 Frc consts  --      1.4721                 1.4173                 1.4615
 IR Inten    --      6.7662                 7.7619                 9.4525

                     58                     59                     60
                      A                      A                      A
 Frequencies --   1525.3117              1527.5057              1530.7363
 Red. masses --      1.0627                 1.1504                 1.0533
 Frc consts  --      1.4567                 1.5814                 1.4541
 IR Inten    --     13.9100                11.6108                 7.0675

                     61                     62                     63
                      A                      A                      A
 Frequencies --   1533.5754              1536.3386              1542.1415
 Red. masses --      1.0928                 1.2100                 1.0544
 Frc consts  --      1.5143                 1.6828                 1.4774
 IR Inten    --     11.2698                22.0953                 9.1950

                     64                     65                     66
                      A                      A                      A
 Frequencies --   1551.3466              1620.9880              2947.0936
 Red. masses --      2.8977                 4.9798                 1.0653
 Frc consts  --      4.1088                 7.7094                 5.4515
 IR Inten    --     42.7132               452.2643                26.6956

                     67                     68                     69
                      A                      A                      A
 Frequencies --   2947.8089              2959.9767              3052.8214
 Red. masses --      1.0638                 1.0645                 1.0660
 Frc consts  --      5.4462                 5.4949                 5.8535
 IR Inten    --     43.0994               186.1619                16.3705

                     70                     71                     72
                      A                      A                      A
 Frequencies --   3056.8923              3075.1103              3085.7409
 Red. masses --      1.0357                 1.0655                 1.0731
 Frc consts  --      5.7023                 5.9366                 6.0200
 IR Inten    --     34.4992                16.4797                18.9493

                     73                     74                     75
                      A                      A                      A
 Frequencies --   3091.3352              3093.3086              3116.2214
 Red. masses --      1.0703                 1.0862                 1.0968
 Frc consts  --      6.0264                 6.1235                 6.2752
 IR Inten    --     32.0450                24.1178                 4.4790

                     76                     77                     78
                      A                      A                      A
 Frequencies --   3120.8380              3124.5162              3131.1023
 Red. masses --      1.1043                 1.1035                 1.1037
 Frc consts  --      6.3369                 6.3472                 6.3752
 IR Inten    --     31.2877                34.3710                30.5389

                     79                     80                     81
                      A                      A                      A
 Frequencies --   3132.9462              3141.9005              3550.6013
 Red. masses --      1.1037                 1.1021                 1.0741
 Frc consts  --      6.3829                 6.4102                 7.9782
 IR Inten    --     36.5018                31.9753                55.2514

 - Thermochemistry -
 -------------------
 Temperature   298.150 Kelvin.  Pressure   1.00000 Atm.
 Atom     1 has atomic number  6 and mass  12.00000

 Molecular mass:   200.10957 amu.
 Principal axes and moments of inertia in atomic units:
                           1         2         3
     Eigenvalues --  1355.266745542.907886110.25009
           X            0.99989  -0.01333  -0.00600
           Y            0.01318   0.99959  -0.02536
           Z            0.00634   0.02528   0.99966
 This molecule is an asymmetric top.
 Rotational symmetry number  1.
 Warning -- assumption of classical behavior for rotation
           may cause significant error
 Rotational temperatures (Kelvin)      0.06391     0.01563     0.01418
 Rotational constants (GHZ):           1.33165     0.32559     0.29536
 Zero-point vibrational energy     654580.5 (Joules/Mol)
                                  156.44848 (Kcal/Mol)
 Warning -- explicit consideration of  22 degrees of freedom as
           vibrations may cause significant error
 Vibrational temperatures:     33.07    41.81    73.64    85.86   134.83
          (Kelvin)            193.67   211.96   307.21   345.11   358.44
                              375.67   418.63   474.12   510.55   550.57
                              604.02   621.98   666.57   769.03   797.66
                              818.38   875.18   984.86  1023.82  1060.21
                             1102.35  1156.17  1173.98  1296.55  1380.67
                             1390.86  1478.94  1537.59  1550.56  1554.46
                             1572.22  1598.36  1629.27  1641.99  1716.25
                             1741.47  1830.89  1856.17  1891.35  1912.34
                             1940.64  1942.33  1995.66  2007.28  2050.70
                             2063.34  2111.54  2115.68  2153.42  2165.51
                             2178.46  2183.37  2194.58  2197.74  2202.39
                             2206.47  2210.45  2218.80  2232.04  2332.24
                             4240.21  4241.24  4258.75  4392.33  4398.19
                             4424.40  4439.69  4447.74  4450.58  4483.55
                             4490.19  4495.48  4504.96  4507.61  4520.49
                             5108.52

 Zero-point correction=                           0.249317 (Hartree/Particle)
 Thermal correction to Energy=                    0.263775
 Thermal correction to Enthalpy=                  0.264719
 Thermal correction to Gibbs Free Energy=         0.205728
 Sum of electronic and zero-point Energies=           -931.476216
 Sum of electronic and thermal Energies=              -931.461758
 Sum of electronic and thermal Enthalpies=            -931.460814
 Sum of electronic and thermal Free Energies=         -931.519804

                     E (Thermal)             CV                S
                      KCal/Mol        Cal/Mol-Kelvin    Cal/Mol-Kelvin
 Total                  165.521             52.404            124.156
 Electronic               0.000              0.000              0.000
 Translational            0.889              2.981             41.786
 Rotational               0.889              2.981             32.196
 Vibrational            163.744             46.443             50.175
 Vibration     1          0.593              1.985              6.358
 Vibration     2          0.593              1.984              5.893
 Vibration     3          0.595              1.977              4.771
 Vibration     4          0.597              1.974              4.468
 Vibration     5          0.603              1.954              3.581
 Vibration     6          0.613              1.919              2.879
 Vibration     7          0.617              1.906              2.707
 Vibration     8          0.644              1.820              2.013
 Vibration     9          0.657              1.779              1.804
 Vibration    10          0.662              1.764              1.737
 Vibration    11          0.669              1.744              1.654
 Vibration    12          0.687              1.691              1.468
 Vibration    13          0.712              1.617              1.262
 Vibration    14          0.731              1.565              1.145
 Vibration    15          0.752              1.507              1.029
 Vibration    16          0.782              1.427              0.893
 Vibration    17          0.793              1.400              0.851
 Vibration    18          0.821              1.331              0.757
 Vibration    19          0.889              1.174              0.577
 Vibration    20          0.910              1.130              0.535
 Vibration    21          0.925              1.099              0.507
 Vibration    22          0.967              1.014              0.436

 Optimization completed.
    -- Stationary point found.
 Normal termination of Gaussian 16 at Wed Dec  9 23:53:10 2020.

 ----------------------------------------------------------------------
 # B3LYP/6-311++G(d,p) empiricaldispersion=gd3bj scf=xqc pop=npa geom=c
 heck
 ----------------------------------------------------------------------

 --------------------------------------
 CID_65272308_JID_3465_Energie_neutraal
 --------------------------------------
 Structure from the checkpoint file:  "JID_3465.chk"
 Charge =  0 Multiplicity = 1

 SCF Done:  E(RB3LYP) =  -931.901656014     A.U. after   14 cycles
 Normal termination of Gaussian 16 at Wed Dec  9 23:56:34 2020.

 ----------------------------------------------------------------------
 # B3LYP/6-311++G(d,p) empiricaldispersion=gd3bj scf=xqc pop=npa geom=c
 heck
 ----------------------------------------------------------------------

 ------------------------------------
 CID_65272308_JID_3465_Energie_kation
 ------------------------------------
 Structure from the checkpoint file:  "JID_3465.chk"
 Charge =  1 Multiplicity = 2

 SCF Done:  E(UB3LYP) =  -931.607480506     A.U. after   24 cycles
 Normal termination of Gaussian 16 at Thu Dec 10 00:04:46 2020.
 Gaussian 16:  ES64L-G16RevA.03 25-Dec-2016

 ----------------------------------------------------------------------
 # B3LYP/6-311++G(d,p) empiricaldispersion=gd3bj scf=xqc pop=npa geom=c
 heck
 ----------------------------------------------------------------------

 -----------------------------------
 CID_65272308_JID_3465_Energie_anion
 -----------------------------------
 Structure from the checkpoint file:  "JID_3465.chk"
 Charge = -1 Multiplicity = 2

                         Standard orientation:
 ---------------------------------------------------------------------
 Center     Atomic      Atomic             Coordinates (Angstroms)
 Number     Number       Type             X           Y           Z
 ---------------------------------------------------------------------
      1          6           0       -4.273066    1.600586    0.784992
      2          6           0       -3.652809    1.139711   -0.541991
      3          6           0       -2.501556    0.198605   -0.329443
      4          7           0       -2.559677   -1.034055   -0.780570
      5         16           0       -1.108806   -1.806929   -0.343135
      6          6           0       -0.524607   -0.339858    0.449096
      7          7           0       -1.392544    0.640276    0.355617
      8          7           0        0.660281   -0.245846    1.109664
      9          6           0        1.773207   -1.139379    0.815902
     10          6           0        2.593133   -0.635213   -0.376789
     11          7           0        3.091548    0.716525   -0.123698
     12          6           0        4.284270    0.715729    0.714518
     13          6           0        3.320600    1.459500   -1.356765
     14          1           0       -4.679714    0.748481    1.340289
     15          1           0       -5.086849    2.311295    0.605212
     16          1           0       -3.518786    2.085741    1.411626
     17          1           0       -4.395391    0.635123   -1.166110
     18          1           0       -3.287421    2.013358   -1.096950
     19          1           0        0.951602    0.718206    1.245956
     20          1           0        2.393075   -1.217514    1.714880
     21          1           0        1.385304   -2.143017    0.616752
     22          1           0        3.406620   -1.348101   -0.610722
     23          1           0        1.931954   -0.600461   -1.249247
     24          1           0        5.147106    0.220240    0.229202
     25          1           0        4.568417    1.746612    0.948208
     26          1           0        4.087843    0.202098    1.660443
     27          1           0        4.108141    1.012939   -1.993119
     28          1           0        2.393719    1.505990   -1.936488
     29          1           0        3.622988    2.483498   -1.113970
 ---------------------------------------------------------------------

 SCF Done:  E(UB3LYP) =  -931.888827155     A.U. after   33 cycles
 SCF Done:  E(UB3LYP) =  -931.888827155     a.u. after    2 cycles

 The electronic state is 2-A.
 Alpha  occ. eigenvalues --  -88.79729 -14.24739 -14.22699 -14.21128 -14.20684
 Alpha  occ. eigenvalues --  -10.17864 -10.14561 -10.11355 -10.09594 -10.09568
 Alpha  occ. eigenvalues --  -10.08696 -10.08257 -10.07659  -7.88202  -5.84594
 Alpha  occ. eigenvalues --   -5.84152  -5.83671  -0.91498  -0.85565  -0.82088
 Alpha  occ. eigenvalues --   -0.76884  -0.71179  -0.65985  -0.64060  -0.60190
 Alpha  occ. eigenvalues --   -0.56668  -0.55734  -0.50988  -0.48296  -0.47339
 Alpha  occ. eigenvalues --   -0.41603  -0.39820  -0.38070  -0.37385  -0.37115
 Alpha  occ. eigenvalues --   -0.35542  -0.34831  -0.34454  -0.31959  -0.31362
 Alpha  occ. eigenvalues --   -0.30372  -0.29125  -0.28815  -0.27342  -0.26914
 Alpha  occ. eigenvalues --   -0.26509  -0.25926  -0.25228  -0.23218  -0.22173
 Alpha  occ. eigenvalues --   -0.18545  -0.18460  -0.13546  -0.12318   0.04673
 Alpha virt. eigenvalues --    0.05984   0.07119   0.07456   0.08157   0.08389
 Alpha virt. eigenvalues --    0.08995   0.09143   0.09737   0.10283   0.10807
 Alpha virt. eigenvalues --    0.11140   0.11580   0.11921   0.12765   0.12996

  Beta  occ. eigenvalues --  -88.79724 -14.24730 -14.22651 -14.21138 -14.20661
  Beta  occ. eigenvalues --  -10.17799 -10.14541 -10.11325 -10.09569 -10.09565
  Beta  occ. eigenvalues --  -10.08694 -10.08220 -10.07595  -7.88196  -5.84591
  Beta  occ. eigenvalues --   -5.84149  -5.83659  -0.91442  -0.85520  -0.82041
  Beta  occ. eigenvalues --   -0.76837  -0.71150  -0.65934  -0.64018  -0.60103
  Beta  occ. eigenvalues --   -0.56593  -0.55710  -0.50907  -0.48234  -0.47253
  Beta  occ. eigenvalues --   -0.41551  -0.39767  -0.38027  -0.37333  -0.37044
  Beta  occ. eigenvalues --   -0.35489  -0.34736  -0.34408  -0.31902  -0.31309
  Beta  occ. eigenvalues --   -0.30320  -0.29084  -0.28764  -0.27331  -0.26860
  Beta  occ. eigenvalues --   -0.26456  -0.25868  -0.25181  -0.23073  -0.22107
  Beta  occ. eigenvalues --   -0.18495  -0.18432  -0.13435  -0.12191
  Beta virt. eigenvalues --    0.06013   0.07280   0.07636   0.07947   0.08714
  Beta virt. eigenvalues --    0.08736   0.09283   0.09516   0.10090   0.10964
  Beta virt. eigenvalues --    0.11216   0.11493   0.11817   0.12453   0.12913

 Mulliken charges and spin densities:
               1          2
     1  C   -0.459068  -0.001648
     2  C   -0.357315  -0.029314
     3  C   -0.533431  -0.036590
     4  N   -0.085642   0.038532
     5  S    0.243491  -0.037187
     6  C    0.337238  -0.294740
     7  N   -0.133184   0.048751
     8  N    0.098664   0.097886
     9  C    0.925795  -1.267244
    10  C   -0.965495   0.599962
    11  N   -0.200424   0.250321
    12  C    1.663599  -2.022842
    13  C    0.854375  -1.158792
    14  H    0.133633  -0.000080
    15  H    0.125586   0.005286
    16  H    0.154146   0.000850
    17  H    0.132031  -0.000212
    18  H    0.153157   0.009391
    19  H    0.145397   0.146142
    20  H   -0.218936   0.437662
    21  H   -0.242919   0.352015
    22  H   -0.715985   0.861863
    23  H    0.047615   0.115319
    24  H   -0.348439   0.483785
    25  H   -0.433315   0.573856
    26  H   -0.657048   0.778590
    27  H   -0.355205   0.479840
    28  H   -0.086462   0.209577
    29  H   -0.221860   0.359020
 Sum of Mulliken charges =  -1.00000   1.00000

 Dipole moment (field-independent basis, Debye):
    X=            -12.4065    Y=              0.2785    Z=             -0.4961  Tot=             12.4196
 Quadrupole moment (field-independent basis, Debye-Ang):
   XX=           -188.9357   YY=           -125.2023   ZZ=           -122.1272
   XY=             -8.4266   XZ=             -5.4985   YZ=             -1.3586

 Summary of Natural Population Analysis:

                                       Natural Population
                Natural  -----------------------------------------------
    Atom  No    Charge         Core      Valence    Rydberg      Total
 -----------------------------------------------------------------------
      C    1   -0.28221      0.99967     2.27878    0.00376     3.28221
      C    2   -0.20451      0.99959     2.19773    0.00720     3.20451
      C    3    0.20305      0.99963     1.77751    0.01981     2.79695
      N    4   -0.32602      0.99969     2.81556    0.01076     3.82602
      S    5    0.23257      4.99946     2.74260    0.02536     7.76743
      C    6    0.15289      0.99961     1.82638    0.02112     2.84711
      N    7   -0.29675      0.99962     2.78551    0.01162     3.79675
      N    8   -0.30734      0.99964     2.79615    0.01155     3.80734
      C    9   -0.09092      0.99961     2.07906    0.01225     3.09092
      C   10   -0.09125      0.99960     2.08028    0.01137     3.09125
      N   11   -0.28831      0.99974     2.77399    0.01459     3.78831
      C   12   -0.17893      0.99964     2.17017    0.00912     3.17893
      C   13   -0.17383      0.99964     2.16556    0.00862     3.17383
      H   14    0.09685      0.00000     0.40230    0.00085     0.40315
      H   15    0.09344      0.00000     0.40571    0.00085     0.40656
      H   16    0.10505      0.00000     0.39400    0.00095     0.39495
      H   17    0.10426      0.00000     0.39463    0.00111     0.39574
      H   18    0.10382      0.00000     0.39510    0.00108     0.39618
      H   19    0.20137      0.00000     0.29456    0.00408     0.29863
      H   20    0.10331      0.00000     0.39495    0.00174     0.39669
      H   21    0.09933      0.00000     0.39913    0.00154     0.40067
      H   22    0.09233      0.00000     0.40474    0.00293     0.40767
      H   23    0.09681      0.00000     0.40136    0.00183     0.40319
      H   24    0.08501      0.00000     0.41189    0.00310     0.41499
      H   25    0.09874      0.00000     0.39907    0.00219     0.40126
      H   26    0.09675      0.00000     0.40042    0.00282     0.40325
      H   27    0.08294      0.00000     0.41552    0.00154     0.41706
      H   28    0.09429      0.00000     0.40451    0.00121     0.40571
      H   29    0.09724      0.00000     0.40135    0.00141     0.40276
 =======================================================================
   * Total *   -0.00000     16.99515    36.80850    0.19635    54.00000

 Normal termination of Gaussian 16 at Thu Dec 10 00:25:38 2020.
