 Gaussian 16, Revision A.03,

 -----------------------------------------------------------
 # opt freq B3LYP/6-31G(d) empiricaldispersion=gd3bj scf=xqc
 -----------------------------------------------------------

 -------------------------------
 CID_107990342_JID_4474_neutraal
 -------------------------------
 Symbolic Z-matrix:
 Charge =  0 Multiplicity = 1

 SCF Done:  E(RB3LYP) =  -614.734486031     A.U. after   15 cycles
 SCF Done:  E(RB3LYP) =  -614.737782267     A.U. after   13 cycles
 SCF Done:  E(RB3LYP) =  -614.737522154     A.U. after   14 cycles
 SCF Done:  E(RB3LYP) =  -614.739247140     A.U. after   12 cycles
 SCF Done:  E(RB3LYP) =  -614.739875368     A.U. after   13 cycles
 SCF Done:  E(RB3LYP) =  -614.739241095     A.U. after   15 cycles
 SCF Done:  E(RB3LYP) =  -614.740803215     A.U. after   13 cycles
 SCF Done:  E(RB3LYP) =  -614.741253814     A.U. after   12 cycles
 SCF Done:  E(RB3LYP) =  -614.741345531     A.U. after   11 cycles
 SCF Done:  E(RB3LYP) =  -614.741404755     A.U. after   11 cycles
 SCF Done:  E(RB3LYP) =  -614.741414210     A.U. after   10 cycles
 SCF Done:  E(RB3LYP) =  -614.741415244     A.U. after    9 cycles
 Optimization completed.
    -- Stationary point found.
 Normal termination of Gaussian 16 at Sun Dec 13 12:25:09 2020.

 --------------------------------------------------------------------
 #N Geom=AllCheck Guess=TCheck SCRF=Check GenChk RB3LYP/6-31G(d) Freq
 --------------------------------------------------------------------

 Structure from the checkpoint file:  "JID_4474.chk"
 -------------------------------
 CID_107990342_JID_4474_neutraal
 -------------------------------
 Charge =  0 Multiplicity = 1

 SCF Done:  E(RB3LYP) =  -614.741415244     A.U. after    1 cycles

  Exact polarizability: 171.157 -18.237 109.231  -5.242  -1.036 110.811
 Approx polarizability: 210.720 -36.083 165.379  -6.996  -6.684 172.788

 ******    1 imaginary frequencies (negative Signs) ******

                      1                      2                      3
                      A                      A                      A
 Frequencies --     -6.6245                24.4118                27.0008
 Red. masses --      1.0135                 4.6681                 3.5949
 Frc consts  --      0.0000                 0.0016                 0.0015
 IR Inten    --      0.0405                 3.4656                 0.0529

                      4                      5                      6
                      A                      A                      A
 Frequencies --     62.9074                77.4687               110.4053
 Red. masses --      4.9546                 4.8818                 3.6539
 Frc consts  --      0.0116                 0.0173                 0.0262
 IR Inten    --      6.0558                 2.1847                 3.9892

                      7                      8                      9
                      A                      A                      A
 Frequencies --    146.3099               166.0448               196.9651
 Red. masses --      3.8635                 3.6584                 3.7492
 Frc consts  --      0.0487                 0.0594                 0.0857
 IR Inten    --      1.9413                 4.4944                 1.1902

                     10                     11                     12
                      A                      A                      A
 Frequencies --    248.8984               302.6536               306.5463
 Red. masses --      2.8945                 2.7904                 2.8176
 Frc consts  --      0.1057                 0.1506                 0.1560
 IR Inten    --      0.4687                 0.4200                 4.2421

                     13                     14                     15
                      A                      A                      A
 Frequencies --    342.2543               353.4265               363.5338
 Red. masses --      2.2517                 2.6735                 3.2148
 Frc consts  --      0.1554                 0.1968                 0.2503
 IR Inten    --      5.1199                11.2743                 6.4184

                     16                     17                     18
                      A                      A                      A
 Frequencies --    433.5786               436.0421               469.1873
 Red. masses --      3.9620                 1.9599                 3.3878
 Frc consts  --      0.4388                 0.2196                 0.4394
 IR Inten    --      3.9456                 1.3274                11.7019

                     19                     20                     21
                      A                      A                      A
 Frequencies --    483.0328               500.0633               538.9346
 Red. masses --      1.2043                 2.1599                 3.2662
 Frc consts  --      0.1656                 0.3182                 0.5589
 IR Inten    --     97.8123                 6.8617                 8.0528

                     22                     23                     24
                      A                      A                      A
 Frequencies --    587.0779               642.1735               741.9544
 Red. masses --      4.8441                 1.9720                 6.0558
 Frc consts  --      0.9837                 0.4791                 1.9642
 IR Inten    --      8.5580                13.8367                 8.2161

                     25                     26                     27
                      A                      A                      A
 Frequencies --    748.9879               791.7921               826.9359
 Red. masses --      2.7122                 1.5528                 3.8438
 Frc consts  --      0.8965                 0.5736                 1.5486
 IR Inten    --      6.4799                61.9963                 9.8350

                     28                     29                     30
                      A                      A                      A
 Frequencies --    855.5364               872.3044               891.7977
 Red. masses --      2.7531                 1.9625                 2.1263
 Frc consts  --      1.1873                 0.8798                 0.9963
 IR Inten    --      0.6214                 7.8796                14.3258

                     31                     32                     33
                      A                      A                      A
 Frequencies --    924.7006               929.8340               963.3973
 Red. masses --      1.8388                 1.8050                 1.9656
 Frc consts  --      0.9264                 0.9195                 1.0748
 IR Inten    --      4.0117                 3.4236                 6.0013

                     34                     35                     36
                      A                      A                      A
 Frequencies --   1023.0914              1036.4278              1058.1065
 Red. masses --      2.1015                 1.9832                 2.2315
 Frc consts  --      1.2960                 1.2551                 1.4720
 IR Inten    --      6.7364                 4.8459                 2.2815

                     37                     38                     39
                      A                      A                      A
 Frequencies --   1064.7213              1071.1945              1077.0989
 Red. masses --      1.4079                 1.4077                 1.7597
 Frc consts  --      0.9404                 0.9517                 1.2028
 IR Inten    --      2.8898                 2.7563                 0.6269

                     40                     41                     42
                      A                      A                      A
 Frequencies --   1088.6331              1117.8967              1147.4118
 Red. masses --      2.2951                 1.8808                 3.6757
 Frc consts  --      1.6025                 1.3848                 2.8512
 IR Inten    --      3.6159                19.8110                 1.5624

                     43                     44                     45
                      A                      A                      A
 Frequencies --   1155.8083              1175.7806              1196.6462
 Red. masses --      2.2126                 2.0876                 1.2517
 Frc consts  --      1.7415                 1.7004                 1.0560
 IR Inten    --      4.6730                 0.3205                13.6790

                     46                     47                     48
                      A                      A                      A
 Frequencies --   1215.9607              1236.5051              1277.1476
 Red. masses --      1.3075                 1.3934                 1.6402
 Frc consts  --      1.1390                 1.2552                 1.5763
 IR Inten    --      6.8661                19.7163                89.8614

                     49                     50                     51
                      A                      A                      A
 Frequencies --   1292.9378              1315.3077              1326.8850
 Red. masses --      1.4899                 1.2049                 1.2047
 Frc consts  --      1.4674                 1.2282                 1.2497
 IR Inten    --    172.4037                 3.6326                 6.0193

                     52                     53                     54
                      A                      A                      A
 Frequencies --   1346.0473              1363.6985              1388.2116
 Red. masses --      1.3172                 1.3056                 1.3854
 Frc consts  --      1.4061                 1.4305                 1.5731
 IR Inten    --     32.7019                 3.4828                 0.9847

                     55                     56                     57
                      A                      A                      A
 Frequencies --   1388.8005              1397.8281              1412.7518
 Red. masses --      1.4557                 1.4392                 1.3737
 Frc consts  --      1.6542                 1.6569                 1.6153
 IR Inten    --     24.1692                 1.4424                 1.4846

                     58                     59                     60
                      A                      A                      A
 Frequencies --   1430.6229              1441.0366              1449.1322
 Red. masses --      1.4876                 1.2412                 1.4373
 Frc consts  --      1.7939                 1.5186                 1.7784
 IR Inten    --      3.7046                 6.0408                 3.0370

                     61                     62                     63
                      A                      A                      A
 Frequencies --   1498.2548              1503.1529              1504.6128
 Red. masses --      1.2761                 1.0397                 1.0414
 Frc consts  --      1.6877                 1.3841                 1.3890
 IR Inten    --      2.3957                 6.6100                 6.6653

                     64                     65                     66
                      A                      A                      A
 Frequencies --   1504.8017              1512.5970              1515.3803
 Red. masses --      1.1038                 1.0923                 1.0905
 Frc consts  --      1.4727                 1.4724                 1.4754
 IR Inten    --     20.6020                 8.3612                 2.2755

                     67                     68                     69
                      A                      A                      A
 Frequencies --   1521.1788              1532.6406              1551.1124
 Red. masses --      1.1018                 1.1147                 1.1108
 Frc consts  --      1.5021                 1.5427                 1.5747
 IR Inten    --      6.2910                 2.3926                24.1162

                     70                     71                     72
                      A                      A                      A
 Frequencies --   1561.5795              1750.0634              2357.6746
 Red. masses --      1.8832                 9.5885                11.9040
 Frc consts  --      2.7056                17.3024                38.9863
 IR Inten    --    256.7953               236.7736                93.3401

                     73                     74                     75
                      A                      A                      A
 Frequencies --   2909.4533              2922.5477              3021.9253
 Red. masses --      1.0740                 1.0738                 1.0691
 Frc consts  --      5.3565                 5.4039                 5.7523
 IR Inten    --     62.8981               107.2028                23.4653

                     76                     77                     78
                      A                      A                      A
 Frequencies --   3025.9029              3044.3659              3046.9005
 Red. masses --      1.0651                 1.0345                 1.0747
 Frc consts  --      5.7460                 5.6488                 5.8783
 IR Inten    --     30.9509                24.9544                48.4017

                     79                     80                     81
                      A                      A                      A
 Frequencies --   3049.5782              3058.7142              3066.3554
 Red. masses --      1.0716                 1.0721                 1.0979
 Frc consts  --      5.8716                 5.9099                 6.0820
 IR Inten    --     20.9337                44.8334                56.1932

                     82                     83                     84
                      A                      A                      A
 Frequencies --   3076.5855              3091.0011              3105.5469
 Red. masses --      1.0870                 1.1037                 1.0920
 Frc consts  --      6.0619                 6.2129                 6.2054
 IR Inten    --     67.5649                47.4195                32.9555

                     85                     86                     87
                      A                      A                      A
 Frequencies --   3107.7287              3109.6515              3129.2464
 Red. masses --      1.1014                 1.1018                 1.0883
 Frc consts  --      6.2673                 6.2776                 6.2788
 IR Inten    --      8.4557                 8.1491                 7.3956

                     88                     89                     90
                      A                      A                      A
 Frequencies --   3156.0826              3505.6996              3618.4925
 Red. masses --      1.0925                 1.0748                 1.0775
 Frc consts  --      6.4116                 7.7823                 8.3125
 IR Inten    --      6.1876                 1.2154                19.4938

 - Thermochemistry -
 -------------------
 Temperature   298.150 Kelvin.  Pressure   1.00000 Atm.
 Atom     1 has atomic number  6 and mass  12.00000

 Molecular mass:   194.14191 amu.
 Principal axes and moments of inertia in atomic units:
                           1         2         3
     Eigenvalues --  1229.398556465.019866583.08996
           X            0.99998  -0.00644   0.00098
           Y            0.00632   0.99598   0.08938
           Z           -0.00156  -0.08937   0.99600
 This molecule is an asymmetric top.
 Rotational symmetry number  1.
 Warning -- assumption of classical behavior for rotation
           may cause significant error
 Rotational temperatures (Kelvin)      0.07045     0.01340     0.01316
 Rotational constants (GHZ):           1.46799     0.27915     0.27415
    1 imaginary frequencies ignored.
 Zero-point vibrational energy     743004.6 (Joules/Mol)
                                  177.58237 (Kcal/Mol)
 Warning -- explicit consideration of  21 degrees of freedom as
           vibrations may cause significant error
 Vibrational temperatures:     35.12    38.85    90.51   111.46   158.85
          (Kelvin)            210.51   238.90   283.39   358.11   435.45
                              441.05   492.43   508.50   523.04   623.82
                              627.37   675.06   694.98   719.48   775.41
                              844.67   923.94  1067.51  1077.63  1139.21
                             1189.78  1230.93  1255.05  1283.10  1330.44
                             1337.82  1386.11  1472.00  1491.19  1522.38
                             1531.90  1541.21  1549.71  1566.30  1608.40
                             1650.87  1662.95  1691.69  1721.71  1749.50
                             1779.06  1837.53  1860.25  1892.43  1909.09
                             1936.66  1962.06  1997.33  1998.17  2011.16
                             2032.63  2058.35  2073.33  2084.98  2155.65
                             2162.70  2164.80  2165.07  2176.29  2180.29
                             2188.64  2205.13  2231.70  2246.76  2517.95
                             3392.17  4186.05  4204.89  4347.88  4353.60
                             4380.16  4383.81  4387.66  4400.81  4411.80
                             4426.52  4447.26  4468.19  4471.33  4474.09
                             4502.29  4540.90  5043.92  5206.20

 Zero-point correction=                           0.282996 (Hartree/Particle)
 Thermal correction to Energy=                    0.297046
 Thermal correction to Enthalpy=                  0.297990
 Thermal correction to Gibbs Free Energy=         0.240316
 Sum of electronic and zero-point Energies=           -614.458420
 Sum of electronic and thermal Energies=              -614.444369
 Sum of electronic and thermal Enthalpies=            -614.443425
 Sum of electronic and thermal Free Energies=         -614.501100

                     E (Thermal)             CV                S
                      KCal/Mol        Cal/Mol-Kelvin    Cal/Mol-Kelvin
 Total                  186.399             52.815            121.386
 Electronic               0.000              0.000              0.000
 Translational            0.889              2.981             41.696
 Rotational               0.889              2.981             32.326
 Vibrational            184.622             46.854             47.365
 Vibration     1          0.593              1.985              6.238
 Vibration     2          0.593              1.984              6.038
 Vibration     3          0.597              1.972              4.364
 Vibration     4          0.599              1.964              3.954
 Vibration     5          0.606              1.941              3.262
 Vibration     6          0.617              1.907              2.720
 Vibration     7          0.624              1.884              2.480
 Vibration     8          0.636              1.844              2.161
 Vibration     9          0.662              1.765              1.738
 Vibration    10          0.694              1.669              1.402
 Vibration    11          0.697              1.661              1.381
 Vibration    12          0.721              1.591              1.202
 Vibration    13          0.730              1.568              1.151
 Vibration    14          0.737              1.547              1.107
 Vibration    15          0.794              1.397              0.847
 Vibration    16          0.796              1.392              0.839
 Vibration    17          0.826              1.318              0.740
 Vibration    18          0.839              1.288              0.702
 Vibration    19          0.855              1.250              0.658
 Vibration    20          0.894              1.164              0.568
 Vibration    21          0.944              1.059              0.472

                           ! Non-Optimized Parameters !
 Normal termination of Gaussian 16 at Sun Dec 13 12:33:40 2020.

 ----------------------------------------------------------------------
 # B3LYP/6-311++G(d,p) empiricaldispersion=gd3bj scf=xqc pop=npa geom=c
 heck
 ----------------------------------------------------------------------

 ---------------------------------------
 CID_107990342_JID_4474_Energie_neutraal
 ---------------------------------------
 Structure from the checkpoint file:  "JID_4474.chk"
 Charge =  0 Multiplicity = 1

 SCF Done:  E(RB3LYP) =  -614.922183577     A.U. after   15 cycles
 Normal termination of Gaussian 16 at Sun Dec 13 12:38:13 2020.

 ----------------------------------------------------------------------
 # B3LYP/6-311++G(d,p) empiricaldispersion=gd3bj scf=xqc pop=npa geom=c
 heck
 ----------------------------------------------------------------------

 -------------------------------------
 CID_107990342_JID_4474_Energie_kation
 -------------------------------------
 Structure from the checkpoint file:  "JID_4474.chk"
 Charge =  1 Multiplicity = 2

 SCF Done:  E(UB3LYP) =  -614.624272370     A.U. after   29 cycles
 Normal termination of Gaussian 16 at Sun Dec 13 12:49:59 2020.
 Gaussian 16:  ES64L-G16RevA.03 25-Dec-2016

 ----------------------------------------------------------------------
 # B3LYP/6-311++G(d,p) empiricaldispersion=gd3bj scf=xqc pop=npa geom=c
 heck
 ----------------------------------------------------------------------

 ------------------------------------
 CID_107990342_JID_4474_Energie_anion
 ------------------------------------
 Structure from the checkpoint file:  "JID_4474.chk"
 Charge = -1 Multiplicity = 2

                         Standard orientation:
 ---------------------------------------------------------------------
 Center     Atomic      Atomic             Coordinates (Angstroms)
 Number     Number       Type             X           Y           Z
 ---------------------------------------------------------------------
      1          6           0       -5.581956    1.291769    0.380304
      2          6           0       -4.320870    0.570711    0.260395
      3          6           0       -3.274063   -0.030755    0.173363
      4          6           0       -2.018289   -0.767893    0.126353
      5          8           0       -1.575930   -1.376401    1.097183
      6          7           0       -1.402299   -0.718310   -1.091916
      7          6           0       -0.098990   -1.316933   -1.345257
      8          6           0        1.046515   -0.298747   -1.412440
      9          6           0        1.222087    0.561359   -0.150055
     10          6           0        2.291535    1.654084   -0.355885
     11          6           0        3.711907    1.068799   -0.401310
     12          6           0        3.967811    0.172068    0.813957
     13          7           0        2.932146   -0.858618    0.887469
     14          6           0        1.606091   -0.269585    1.085777
     15          1           0       -6.339177    0.674062    0.877135
     16          1           0       -5.453939    2.203722    0.975506
     17          1           0       -5.972988    1.582634   -0.601588
     18          1           0       -1.821238   -0.134963   -1.803040
     19          1           0        0.067514   -2.039432   -0.545138
     20          1           0       -0.150793   -1.875487   -2.287660
     21          1           0        1.967253   -0.858073   -1.607762
     22          1           0        0.884732    0.364701   -2.274830
     23          1           0        0.264443    1.053798    0.064051
     24          1           0        2.084685    2.227354   -1.269024
     25          1           0        2.229626    2.362578    0.482091
     26          1           0        3.848298    0.475430   -1.313180
     27          1           0        4.453309    1.876889   -0.428550
     28          1           0        4.946214   -0.314889    0.729392
     29          1           0        3.992004    0.806568    1.723851
     30          1           0        3.137705   -1.500958    1.648732
     31          1           0        1.574341    0.398948    1.969232
     32          1           0        0.875862   -1.062438    1.263247
 ---------------------------------------------------------------------

 SCF Done:  E(UB3LYP) =  -614.911698313     A.U. after   33 cycles
 SCF Done:  E(UB3LYP) =  -614.911698313     a.u. after    1 cycles

 The electronic state is 2-A.
 Alpha  occ. eigenvalues --  -18.99257 -14.24165 -14.20522 -10.19052 -10.10797
 Alpha  occ. eigenvalues --  -10.10070 -10.09668 -10.08840 -10.08817 -10.07410
 Alpha  occ. eigenvalues --  -10.07332 -10.07138 -10.07061 -10.06834  -0.94309
 Alpha  occ. eigenvalues --   -0.83043  -0.81949  -0.71006  -0.69409  -0.67453
 Alpha  occ. eigenvalues --   -0.64554  -0.61645  -0.56148  -0.54282  -0.52029
 Alpha  occ. eigenvalues --   -0.49744  -0.47042  -0.43621  -0.42423  -0.38330
 Alpha  occ. eigenvalues --   -0.37409  -0.36648  -0.35970  -0.35374  -0.33975
 Alpha  occ. eigenvalues --   -0.33864  -0.33301  -0.32609  -0.31851  -0.31303
 Alpha  occ. eigenvalues --   -0.29808  -0.29232  -0.28054  -0.26332  -0.24396
 Alpha  occ. eigenvalues --   -0.22843  -0.21776  -0.21353  -0.19018  -0.17981
 Alpha  occ. eigenvalues --   -0.16345  -0.16084  -0.13769   0.03987
 Alpha virt. eigenvalues --    0.05485   0.06477   0.06973   0.07351   0.07847
 Alpha virt. eigenvalues --    0.08800   0.08989   0.09710   0.09925   0.10306
 Alpha virt. eigenvalues --    0.10865   0.10966   0.12449   0.12499   0.12977

  Beta  occ. eigenvalues --  -18.99235 -14.24140 -14.20512 -10.19029 -10.10789
  Beta  occ. eigenvalues --  -10.10056 -10.09604 -10.08835 -10.08796 -10.07408
  Beta  occ. eigenvalues --  -10.07321 -10.07127 -10.07057 -10.06815  -0.94264
  Beta  occ. eigenvalues --   -0.82996  -0.81933  -0.70981  -0.69340  -0.67422
  Beta  occ. eigenvalues --   -0.64512  -0.61585  -0.56102  -0.54252  -0.51985
  Beta  occ. eigenvalues --   -0.49683  -0.46987  -0.43587  -0.42387  -0.38287
  Beta  occ. eigenvalues --   -0.37326  -0.36623  -0.35936  -0.35331  -0.33895
  Beta  occ. eigenvalues --   -0.33794  -0.33272  -0.32585  -0.31818  -0.31235
  Beta  occ. eigenvalues --   -0.29776  -0.29209  -0.28013  -0.26309  -0.24370
  Beta  occ. eigenvalues --   -0.22821  -0.21756  -0.21329  -0.18987  -0.17889
  Beta  occ. eigenvalues --   -0.16304  -0.16039  -0.13740
  Beta virt. eigenvalues --    0.05872   0.06607   0.06984   0.07482   0.07602
  Beta virt. eigenvalues --    0.08096   0.09288   0.09477   0.10108   0.10462
  Beta virt. eigenvalues --    0.10602   0.11047   0.11121   0.12626   0.12652

 Mulliken charges and spin densities:
               1          2
     1  C    2.585177  -3.088963
     2  C   -1.254517   1.327886
     3  C    0.428305  -0.174758
     4  C   -1.120996   0.734962
     5  O   -0.297541  -0.001828
     6  N   -0.018732  -0.084288
     7  C    0.264636  -0.633940
     8  C    0.028849  -0.536390
     9  C   -0.243978   0.974530
    10  C    0.393983  -0.789800
    11  C   -0.453858   0.110226
    12  C    0.353034  -0.654990
    13  N   -0.274248   0.158373
    14  C   -0.219377  -0.613100
    15  H   -0.292427   0.456066
    16  H   -0.237912   0.399979
    17  H   -0.552390   0.728051
    18  H    0.019284   0.255415
    19  H    0.165622   0.028327
    20  H   -0.303927   0.491166
    21  H    0.259342  -0.113221
    22  H   -0.438649   0.612199
    23  H    0.188476   0.024977
    24  H   -0.104808   0.245943
    25  H    0.004974   0.136995
    26  H    0.100445   0.033921
    27  H   -0.233587   0.393874
    28  H   -0.228395   0.385759
    29  H    0.032850   0.065686
    30  H    0.161546   0.078955
    31  H    0.052340   0.053494
    32  H    0.236481  -0.005506
 Sum of Mulliken charges =  -1.00000   1.00000

 Dipole moment (field-independent basis, Debye):
    X=              6.5214    Y=             -2.0613    Z=              1.5217  Tot=              7.0067
 Quadrupole moment (field-independent basis, Debye-Ang):
   XX=           -194.8396   YY=           -119.7102   ZZ=           -122.3904
   XY=              6.7280   XZ=             -0.1221   YZ=              4.8550

 Summary of Natural Population Analysis:

                                       Natural Population
                Natural  -----------------------------------------------
    Atom  No    Charge         Core      Valence    Rydberg      Total
 -----------------------------------------------------------------------
      C    1   -0.32488      0.99961     2.31917    0.00609     3.32488
      C    2    0.04021      0.99928     1.95395    0.00656     2.95979
      C    3   -0.06709      0.99918     2.05907    0.00884     3.06709
      C    4    0.30718      0.99960     1.67145    0.02178     2.69282
      O    5   -0.31384      0.99988     3.30896    0.00500     4.31384
      N    6   -0.30700      0.99968     2.79665    0.01067     3.80700
      C    7   -0.09148      0.99961     2.08017    0.01170     3.09148
      C    8   -0.19544      0.99960     2.18598    0.00986     3.19544
      C    9   -0.11799      0.99959     2.10694    0.01146     3.11799
      C   10   -0.18748      0.99961     2.17855    0.00931     3.18748
      C   11   -0.19517      0.99963     2.18748    0.00806     3.19517
      C   12   -0.08757      0.99963     2.07638    0.01156     3.08757
      N   13   -0.34308      0.99974     2.83301    0.01034     3.84308
      C   14   -0.09202      0.99960     2.08216    0.01027     3.09202
      H   15    0.11554      0.00000     0.38268    0.00178     0.38446
      H   16    0.11519      0.00000     0.38367    0.00114     0.38481
      H   17    0.11796      0.00000     0.37865    0.00339     0.38204
      H   18    0.19937      0.00000     0.29670    0.00393     0.30063
      H   19    0.10794      0.00000     0.39064    0.00142     0.39206
      H   20    0.09595      0.00000     0.40309    0.00096     0.40405
      H   21    0.10541      0.00000     0.39292    0.00167     0.39459
      H   22    0.09698      0.00000     0.40144    0.00158     0.40302
      H   23    0.10296      0.00000     0.39525    0.00180     0.39704
      H   24    0.10041      0.00000     0.39858    0.00101     0.39959
      H   25    0.09489      0.00000     0.40385    0.00126     0.40511
      H   26    0.09651      0.00000     0.40222    0.00127     0.40349
      H   27    0.09790      0.00000     0.40107    0.00103     0.40210
      H   28    0.09368      0.00000     0.40529    0.00103     0.40632
      H   29    0.07422      0.00000     0.42428    0.00150     0.42578
      H   30    0.17284      0.00000     0.32493    0.00223     0.32716
      H   31    0.07773      0.00000     0.42093    0.00134     0.42227
      H   32    0.11017      0.00000     0.38857    0.00126     0.38983
 =======================================================================
   * Total *   -0.00000     13.99422    38.83467    0.17111    53.00000

 Normal termination of Gaussian 16 at Sun Dec 13 13:03:30 2020.
