 Gaussian 16, Revision A.03,

 -----------------------------------------------------------
 # opt freq B3LYP/6-31G(d) empiricaldispersion=gd3bj scf=xqc
 -----------------------------------------------------------

 -------------------------------
 CID_107142918_JID_7530_neutraal
 -------------------------------
 Symbolic Z-matrix:
 Charge =  0 Multiplicity = 1

 SCF Done:  E(RB3LYP) =  -769.813987377     A.U. after   14 cycles
 SCF Done:  E(RB3LYP) =  -769.828829392     A.U. after   12 cycles
 SCF Done:  E(RB3LYP) =  -769.830787040     A.U. after   12 cycles
 SCF Done:  E(RB3LYP) =  -769.831823104     A.U. after   12 cycles
 SCF Done:  E(RB3LYP) =  -769.834573730     A.U. after   14 cycles
 SCF Done:  E(RB3LYP) =  -769.829826359     A.U. after   14 cycles
 SCF Done:  E(RB3LYP) =  -769.837207119     A.U. after   13 cycles
 SCF Done:  E(RB3LYP) =  -769.838874499     A.U. after   11 cycles
 SCF Done:  E(RB3LYP) =  -769.839990463     A.U. after   12 cycles
 SCF Done:  E(RB3LYP) =  -769.840003109     A.U. after   12 cycles
 SCF Done:  E(RB3LYP) =  -769.843909161     A.U. after   10 cycles
 SCF Done:  E(RB3LYP) =  -769.843988259     A.U. after   10 cycles
 SCF Done:  E(RB3LYP) =  -769.843991311     A.U. after    8 cycles
 SCF Done:  E(RB3LYP) =  -769.843991819     A.U. after    7 cycles
 SCF Done:  E(RB3LYP) =  -769.843991875     A.U. after    6 cycles
 Optimization completed.
    -- Stationary point found.
 Normal termination of Gaussian 16 at Fri Dec 11 12:59:31 2020.

 --------------------------------------------------------------------
 #N Geom=AllCheck Guess=TCheck SCRF=Check GenChk RB3LYP/6-31G(d) Freq
 --------------------------------------------------------------------

 Structure from the checkpoint file:  "JID_7530.chk"
 -------------------------------
 CID_107142918_JID_7530_neutraal
 -------------------------------
 Charge =  0 Multiplicity = 1

 SCF Done:  E(RB3LYP) =  -769.843991875     A.U. after    1 cycles

  Exact polarizability: 166.576   7.209 146.280  -2.009   4.044 131.847
 Approx polarizability: 216.092   9.138 205.127  -8.218   3.028 210.070

                      1                      2                      3
                      A                      A                      A
 Frequencies --     36.3723                54.6668                68.3769
 Red. masses --      5.0621                 4.8128                 4.0539
 Frc consts  --      0.0039                 0.0085                 0.0112
 IR Inten    --      0.1744                 0.4445                 1.9357

                      4                      5                      6
                      A                      A                      A
 Frequencies --     96.9187               106.0043               130.3758
 Red. masses --      5.2469                 4.2733                 3.9107
 Frc consts  --      0.0290                 0.0283                 0.0392
 IR Inten    --      2.1284                 0.0815                 2.9092

                      7                      8                      9
                      A                      A                      A
 Frequencies --    141.8964               174.1308               196.0485
 Red. masses --      4.0255                 3.0684                 2.5505
 Frc consts  --      0.0478                 0.0548                 0.0578
 IR Inten    --      1.4905                 1.7396                 1.5940

                     10                     11                     12
                      A                      A                      A
 Frequencies --    229.2151               248.5218               256.6625
 Red. masses --      1.2076                 2.4847                 1.3781
 Frc consts  --      0.0374                 0.0904                 0.0535
 IR Inten    --      0.3805                 1.9798                 0.0403

                     13                     14                     15
                      A                      A                      A
 Frequencies --    279.7740               291.8183               322.0246
 Red. masses --      2.3797                 1.6904                 2.4893
 Frc consts  --      0.1097                 0.0848                 0.1521
 IR Inten    --      0.8001                 0.3441                 0.4210

                     16                     17                     18
                      A                      A                      A
 Frequencies --    328.4222               357.6733               395.4625
 Red. masses --      2.1515                 3.0862                 2.9926
 Frc consts  --      0.1367                 0.2326                 0.2757
 IR Inten    --      1.3897                 1.0918                 1.4146

                     19                     20                     21
                      A                      A                      A
 Frequencies --    407.4763               428.8865               434.3460
 Red. masses --      2.2138                 2.0147                 2.1163
 Frc consts  --      0.2166                 0.2183                 0.2352
 IR Inten    --      1.9419                 0.9699                 0.6523

                     22                     23                     24
                      A                      A                      A
 Frequencies --    455.5789               495.2343               502.2716
 Red. masses --      2.0432                 2.5795                 2.2407
 Frc consts  --      0.2499                 0.3727                 0.3331
 IR Inten    --      1.0513                 1.0518                 0.7767

                     25                     26                     27
                      A                      A                      A
 Frequencies --    513.6629               550.9429               611.9526
 Red. masses --      2.2992                 2.1202                 2.7612
 Frc consts  --      0.3574                 0.3792                 0.6092
 IR Inten    --      1.8784                22.4476                33.2215

                     28                     29                     30
                      A                      A                      A
 Frequencies --    662.9342               673.7735               707.6755
 Red. masses --      1.9119                 2.2239                 2.7027
 Frc consts  --      0.4951                 0.5948                 0.7975
 IR Inten    --    137.8480                41.8111                20.3378

                     31                     32                     33
                      A                      A                      A
 Frequencies --    716.7039               759.7368               812.9737
 Red. masses --      2.5754                 2.0548                 2.6992
 Frc consts  --      0.7794                 0.6988                 1.0511
 IR Inten    --     13.7964                38.7573                13.9944

                     34                     35                     36
                      A                      A                      A
 Frequencies --    849.0193               854.4666               874.4105
 Red. masses --      2.1089                 2.2748                 3.2659
 Frc consts  --      0.8957                 0.9786                 1.4712
 IR Inten    --      2.6492                 3.3992                 1.0795

                     37                     38                     39
                      A                      A                      A
 Frequencies --    884.4194               900.7337               936.6411
 Red. masses --      1.7193                 1.9096                 2.1939
 Frc consts  --      0.7924                 0.9128                 1.1340
 IR Inten    --      1.6036                 4.1699                 4.2592

                     40                     41                     42
                      A                      A                      A
 Frequencies --    943.2540               943.7402               957.2238
 Red. masses --      2.0138                 2.1065                 1.8110
 Frc consts  --      1.0556                 1.1054                 0.9777
 IR Inten    --     11.3020                13.3606                 5.9526

                     43                     44                     45
                      A                      A                      A
 Frequencies --    962.4118               966.7468               981.4095
 Red. masses --      1.5265                 1.5727                 1.8937
 Frc consts  --      0.8330                 0.8660                 1.0747
 IR Inten    --      1.2717                 6.8472                 8.9072

                     46                     47                     48
                      A                      A                      A
 Frequencies --   1008.6775              1019.8644              1029.4099
 Red. masses --      1.8221                 2.8239                 2.3929
 Frc consts  --      1.0923                 1.7306                 1.4940
 IR Inten    --      2.4604                 3.2154                 3.2907

                     49                     50                     51
                      A                      A                      A
 Frequencies --   1040.8584              1052.4061              1061.7082
 Red. masses --      1.7342                 1.8818                 1.5896
 Frc consts  --      1.1070                 1.2280                 1.0557
 IR Inten    --      1.5462                 4.0910                 5.9515

                     52                     53                     54
                      A                      A                      A
 Frequencies --   1080.6287              1093.4954              1108.7596
 Red. masses --      2.5662                 1.9390                 1.8608
 Frc consts  --      1.7656                 1.3660                 1.3478
 IR Inten    --     23.4303                13.5543                 0.6677

                     55                     56                     57
                      A                      A                      A
 Frequencies --   1128.1495              1133.6730              1155.5163
 Red. masses --      1.5203                 1.3774                 1.2167
 Frc consts  --      1.1400                 1.0430                 0.9571
 IR Inten    --     10.1722                41.7426                 1.8874

                     58                     59                     60
                      A                      A                      A
 Frequencies --   1192.6105              1199.1241              1221.2796
 Red. masses --      1.5666                 1.7329                 1.9948
 Frc consts  --      1.3128                 1.4681                 1.7530
 IR Inten    --     22.9374                20.1920                 7.4793

                     61                     62                     63
                      A                      A                      A
 Frequencies --   1229.1128              1237.0694              1261.6766
 Red. masses --      1.9597                 1.7318                 1.2975
 Frc consts  --      1.7443                 1.5615                 1.2169
 IR Inten    --    143.6728                27.2453                 2.7102

                     64                     65                     66
                      A                      A                      A
 Frequencies --   1271.9946              1290.5796              1319.2844
 Red. masses --      1.6977                 1.8471                 1.5701
 Frc consts  --      1.6184                 1.8126                 1.6101
 IR Inten    --     23.3362                12.0181                 5.3755

                     67                     68                     69
                      A                      A                      A
 Frequencies --   1323.6714              1337.6334              1349.3620
 Red. masses --      1.5794                 1.4658                 1.6092
 Frc consts  --      1.6304                 1.5453                 1.7263
 IR Inten    --     19.7621                 6.5412                 7.1964

                     70                     71                     72
                      A                      A                      A
 Frequencies --   1357.8037              1369.3934              1375.7034
 Red. masses --      1.4971                 1.5334                 1.5449
 Frc consts  --      1.6262                 1.6942                 1.7227
 IR Inten    --      0.1896                 4.9117                 8.1146

                     73                     74                     75
                      A                      A                      A
 Frequencies --   1384.0116              1392.1889              1397.6624
 Red. masses --      1.3869                 2.5336                 1.5066
 Frc consts  --      1.5652                 2.8932                 1.7340
 IR Inten    --     15.4171                34.9340                 2.0449

                     76                     77                     78
                      A                      A                      A
 Frequencies --   1401.6156              1415.0583              1424.9386
 Red. masses --      1.4589                 1.4602                 1.2983
 Frc consts  --      1.6886                 1.7227                 1.5532
 IR Inten    --      3.0367                 2.1251                 6.8688

                     79                     80                     81
                      A                      A                      A
 Frequencies --   1428.9328              1454.5151              1503.3371
 Red. masses --      1.2430                 1.2345                 1.0905
 Frc consts  --      1.4954                 1.5387                 1.4521
 IR Inten    --      4.0706                10.7250                14.3644

                     82                     83                     84
                      A                      A                      A
 Frequencies --   1506.8006              1511.1505              1514.1633
 Red. masses --      1.0756                 1.0864                 1.0795
 Frc consts  --      1.4388                 1.4617                 1.4582
 IR Inten    --      1.3951                 1.2538                 2.6865

                     85                     86                     87
                      A                      A                      A
 Frequencies --   1518.0372              1524.4715              1529.5728
 Red. masses --      1.0713                 1.1190                 1.0739
 Frc consts  --      1.4545                 1.5322                 1.4803
 IR Inten    --      2.1119                 8.1492                 3.3206

                     88                     89                     90
                      A                      A                      A
 Frequencies --   1533.9090              1535.2383              1544.8497
 Red. masses --      1.0676                 1.0849                 1.1660
 Frc consts  --      1.4799                 1.5066                 1.6396
 IR Inten    --      8.9000                11.1386                12.6221

                     91                     92                     93
                      A                      A                      A
 Frequencies --   1552.5083              1556.4025              1841.9390
 Red. masses --      1.0780                 1.1105                 9.4073
 Frc consts  --      1.5308                 1.5850                18.8046
 IR Inten    --     30.4069                 3.5553               268.9091

                     94                     95                     96
                      A                      A                      A
 Frequencies --   2981.5176              2999.3784              3012.8518
 Red. masses --      1.0820                 1.0670                 1.0649
 Frc consts  --      5.6670                 5.6557                 5.6951
 IR Inten    --     28.2000                71.2520                19.4980

                     97                     98                     99
                      A                      A                      A
 Frequencies --   3018.8026              3030.3806              3032.7864
 Red. masses --      1.0684                 1.0642                 1.0498
 Frc consts  --      5.7364                 5.7577                 5.6893
 IR Inten    --     35.3318                56.3091                40.3548

                    100                    101                    102
                      A                      A                      A
 Frequencies --   3034.6957              3041.2692              3044.8567
 Red. masses --      1.0486                 1.0657                 1.0474
 Frc consts  --      5.6899                 5.8073                 5.7212
 IR Inten    --     53.2396                18.1319                25.9858

                    103                    104                    105
                      A                      A                      A
 Frequencies --   3061.3994              3068.0537              3071.2552
 Red. masses --      1.0947                 1.0987                 1.0654
 Frc consts  --      6.0447                 6.0936                 5.9208
 IR Inten    --     52.9677                42.3734                10.1614

                    106                    107                    108
                      A                      A                      A
 Frequencies --   3081.6857              3083.2135              3097.1290
 Red. masses --      1.1039                 1.0967                 1.1022
 Frc consts  --      6.1766                 6.1426                 6.2292
 IR Inten    --     78.4752                34.7630                29.7647

                    109                    110                    111
                      A                      A                      A
 Frequencies --   3098.5212              3105.6165              3112.6953
 Red. masses --      1.1014                 1.1016                 1.0952
 Frc consts  --      6.2304                 6.2599                 6.2519
 IR Inten    --     50.2651                15.3351                13.4310

                    112                    113                    114
                      A                      A                      A
 Frequencies --   3116.8036              3135.7869              3161.2442
 Red. masses --      1.0930                 1.0979                 1.0967
 Frc consts  --      6.2561                 6.3607                 6.4574
 IR Inten    --     42.9586                11.0090                16.3811

                    115                    116                    117
                      A                      A                      A
 Frequencies --   3503.8098              3504.6634              3686.5899
 Red. masses --      1.0758                 1.0745                 1.0640
 Frc consts  --      7.7815                 7.7758                 8.5199
 IR Inten    --      4.8800                 0.3700                48.2425

 - Thermochemistry -
 -------------------
 Temperature   298.150 Kelvin.  Pressure   1.00000 Atm.
 Atom     1 has atomic number  6 and mass  12.00000

 Molecular mass:   240.18378 amu.
 Principal axes and moments of inertia in atomic units:
                           1         2         3
     Eigenvalues --  2772.343614771.373146426.59853
           X            0.99982   0.01858   0.00431
           Y           -0.01862   0.99979   0.00833
           Z           -0.00415  -0.00841   0.99996
 This molecule is an asymmetric top.
 Rotational symmetry number  1.
 Warning -- assumption of classical behavior for rotation
           may cause significant error
 Rotational temperatures (Kelvin)      0.03124     0.01815     0.01348
 Rotational constants (GHZ):           0.65098     0.37824     0.28082
 Zero-point vibrational energy     970821.9 (Joules/Mol)
                                  232.03200 (Kcal/Mol)
 Warning -- explicit consideration of  27 degrees of freedom as
           vibrations may cause significant error
 Vibrational temperatures:     52.33    78.65    98.38   139.44   152.52
          (Kelvin)            187.58   204.16   250.54   282.07   329.79
                              357.57   369.28   402.53   419.86   463.32
                              472.53   514.61   568.98   586.27   617.07
                              624.93   655.48   712.53   722.66   739.05
                              792.68   880.46   953.81   969.41  1018.19
                             1031.18  1093.09  1169.69  1221.55  1229.39
                             1258.08  1272.48  1295.95  1347.62  1357.13
                             1357.83  1377.23  1384.70  1390.93  1412.03
                             1451.26  1467.36  1481.09  1497.56  1514.18
                             1527.56  1554.78  1573.30  1595.26  1623.16
                             1631.10  1662.53  1715.90  1725.27  1757.15
                             1768.42  1779.87  1815.27  1830.12  1856.86
                             1898.16  1904.47  1924.56  1941.43  1953.58
                             1970.25  1979.33  1991.28  2003.05  2010.92
                             2016.61  2035.95  2050.17  2055.92  2092.72
                             2162.97  2167.95  2174.21  2178.54  2184.12
                             2193.37  2200.71  2206.95  2208.87  2222.69
                             2233.71  2239.32  2650.14  4289.74  4315.44
                             4334.82  4343.38  4360.04  4363.50  4366.25
                             4375.71  4380.87  4404.67  4414.24  4418.85
                             4433.86  4436.06  4456.08  4458.08  4468.29
                             4478.47  4484.39  4511.70  4548.33  5041.20
                             5042.43  5304.18

 Zero-point correction=                           0.369767 (Hartree/Particle)
 Thermal correction to Energy=                    0.386851
 Thermal correction to Enthalpy=                  0.387795
 Thermal correction to Gibbs Free Energy=         0.325687
 Sum of electronic and zero-point Energies=           -769.474225
 Sum of electronic and thermal Energies=              -769.457141
 Sum of electronic and thermal Enthalpies=            -769.456197
 Sum of electronic and thermal Free Energies=         -769.518305

                     E (Thermal)             CV                S
                      KCal/Mol        Cal/Mol-Kelvin    Cal/Mol-Kelvin
 Total                  242.752             67.895            130.716
 Electronic               0.000              0.000              0.000
 Translational            0.889              2.981             42.330
 Rotational               0.889              2.981             32.808
 Vibrational            240.975             61.933             55.578
 Vibration     1          0.594              1.982              5.447
 Vibration     2          0.596              1.976              4.641
 Vibration     3          0.598              1.969              4.200
 Vibration     4          0.603              1.951              3.515
 Vibration     5          0.605              1.944              3.341
 Vibration     6          0.612              1.923              2.940
 Vibration     7          0.615              1.911              2.778
 Vibration     8          0.627              1.874              2.390
 Vibration     9          0.636              1.845              2.170
 Vibration    10          0.652              1.796              1.885
 Vibration    11          0.662              1.765              1.741
 Vibration    12          0.666              1.752              1.684
 Vibration    13          0.680              1.711              1.535
 Vibration    14          0.687              1.689              1.463
 Vibration    15          0.707              1.631              1.300
 Vibration    16          0.712              1.619              1.268
 Vibration    17          0.733              1.559              1.132
 Vibration    18          0.762              1.480              0.979
 Vibration    19          0.772              1.454              0.936
 Vibration    20          0.790              1.407              0.862
 Vibration    21          0.795              1.395              0.845
 Vibration    22          0.814              1.349              0.779
 Vibration    23          0.851              1.261              0.670
 Vibration    24          0.858              1.245              0.652
 Vibration    25          0.869              1.220              0.625
 Vibration    26          0.906              1.138              0.542
 Vibration    27          0.971              1.007              0.430

 Optimization completed.
    -- Stationary point found.
 Normal termination of Gaussian 16 at Fri Dec 11 13:19:02 2020.

 ----------------------------------------------------------------------
 # B3LYP/6-311++G(d,p) empiricaldispersion=gd3bj scf=xqc pop=npa geom=c
 heck
 ----------------------------------------------------------------------

 ---------------------------------------
 CID_107142918_JID_7530_Energie_neutraal
 ---------------------------------------
 Structure from the checkpoint file:  "JID_7530.chk"
 Charge =  0 Multiplicity = 1

 SCF Done:  E(RB3LYP) =  -770.071914016     A.U. after   14 cycles
 Normal termination of Gaussian 16 at Fri Dec 11 13:26:27 2020.

 ----------------------------------------------------------------------
 # B3LYP/6-311++G(d,p) empiricaldispersion=gd3bj scf=xqc pop=npa geom=c
 heck
 ----------------------------------------------------------------------

 -------------------------------------
 CID_107142918_JID_7530_Energie_kation
 -------------------------------------
 Structure from the checkpoint file:  "JID_7530.chk"
 Charge =  1 Multiplicity = 2

 SCF Done:  E(UB3LYP) =  -769.780718566     A.U. after   21 cycles
 Normal termination of Gaussian 16 at Fri Dec 11 13:41:12 2020.
 Gaussian 16:  ES64L-G16RevA.03 25-Dec-2016

 ----------------------------------------------------------------------
 # B3LYP/6-311++G(d,p) empiricaldispersion=gd3bj scf=xqc pop=npa geom=c
 heck
 ----------------------------------------------------------------------

 ------------------------------------
 CID_107142918_JID_7530_Energie_anion
 ------------------------------------
 Structure from the checkpoint file:  "JID_7530.chk"
 Charge = -1 Multiplicity = 2

                         Standard orientation:
 ---------------------------------------------------------------------
 Center     Atomic      Atomic             Coordinates (Angstroms)
 Number     Number       Type             X           Y           Z
 ---------------------------------------------------------------------
      1          6           0        1.909396    1.089595    1.284048
      2          6           0        2.529133    0.399346    0.053817
      3          6           0        3.180412   -0.943975    0.453948
      4          6           0        2.161553   -2.037846    0.794074
      5          6           0        1.207029   -2.267060   -0.384561
      6          6           0        0.463978   -0.980434   -0.779102
      7          6           0        1.476578    0.149569   -1.054759
      8          7           0       -0.530732   -0.625889    0.258640
      9          6           0       -1.885934   -0.365458   -0.210223
     10          6           0       -2.611129   -1.595826   -0.857490
     11          7           0       -3.093754   -1.959573    0.495257
     12          6           0       -2.890755   -0.564591    0.954224
     13          6           0       -1.950393    0.949374   -0.986917
     14          6           0       -1.426455    2.122789   -0.189694
     15          8           0       -0.540361    2.875757   -0.530124
     16          8           0       -2.088871    2.272399    0.983719
     17          6           0        3.613766    1.329026   -0.514897
     18          1           0        1.111348    0.496322    1.732742
     19          1           0        2.683200    1.277707    2.039658
     20          1           0        1.471823    2.051128    0.995663
     21          1           0        3.799731   -1.297599   -0.384169
     22          1           0        3.863474   -0.781941    1.298382
     23          1           0        1.594681   -1.757661    1.691433
     24          1           0        2.680796   -2.972513    1.039017
     25          1           0        0.479850   -3.058127   -0.157563
     26          1           0        1.790763   -2.610818   -1.249111
     27          1           0       -0.066327   -1.181693   -1.723447
     28          1           0        0.950426    1.084951   -1.266392
     29          1           0        2.013742   -0.125504   -1.974998
     30          1           0       -0.589642   -1.385575    0.932717
     31          1           0       -3.402828   -1.288555   -1.558813
     32          1           0       -1.983358   -2.353498   -1.340210
     33          1           0       -4.052679   -2.297711    0.537830
     34          1           0       -2.486208   -0.457458    1.966409
     35          1           0       -3.768264    0.088782    0.851340
     36          1           0       -1.365239    0.891080   -1.907752
     37          1           0       -2.991144    1.154392   -1.263836
     38          1           0       -1.664743    3.025766    1.435787
     39          1           0        4.386298    1.534530    0.236655
     40          1           0        4.104490    0.881621   -1.388185
     41          1           0        3.181998    2.288310   -0.824005
 ---------------------------------------------------------------------

 SCF Done:  E(UB3LYP) =  -770.060584253     A.U. after   33 cycles
 SCF Done:  E(UB3LYP) =  -770.060584253     a.u. after    1 cycles

 The electronic state is 2-A.
 Alpha  occ. eigenvalues --  -19.07411 -19.01954 -14.19767 -14.19668 -10.21023
 Alpha  occ. eigenvalues --  -10.11761 -10.10090 -10.09059 -10.09052 -10.08582
 Alpha  occ. eigenvalues --  -10.08351 -10.07304 -10.07223 -10.06950 -10.06426
 Alpha  occ. eigenvalues --  -10.05958 -10.04953  -1.01481  -0.92508  -0.84966
 Alpha  occ. eigenvalues --   -0.79577  -0.73909  -0.68934  -0.67085  -0.63853
 Alpha  occ. eigenvalues --   -0.58618  -0.58242  -0.57903  -0.57684  -0.51738
 Alpha  occ. eigenvalues --   -0.51572  -0.48494  -0.45856  -0.42820  -0.41927
 Alpha  occ. eigenvalues --   -0.40706  -0.39220  -0.38623  -0.37503  -0.36656
 Alpha  occ. eigenvalues --   -0.35685  -0.34585  -0.34331  -0.33626  -0.32440
 Alpha  occ. eigenvalues --   -0.31682  -0.30696  -0.30291  -0.29328  -0.29137
 Alpha  occ. eigenvalues --   -0.28383  -0.27712  -0.27371  -0.26393  -0.26135
 Alpha  occ. eigenvalues --   -0.25147  -0.24468  -0.24248  -0.23203  -0.22482
 Alpha  occ. eigenvalues --   -0.21497  -0.20618  -0.19852  -0.18680  -0.13888
 Alpha  occ. eigenvalues --   -0.12449   0.04176
 Alpha virt. eigenvalues --    0.05976   0.06533   0.07361   0.07710   0.08286
 Alpha virt. eigenvalues --    0.08591   0.09552   0.09590   0.09825   0.10531
 Alpha virt. eigenvalues --    0.10755   0.11009   0.11501   0.11828   0.12596

  Beta  occ. eigenvalues --  -19.07384 -19.01934 -14.19756 -14.19643 -10.20995
  Beta  occ. eigenvalues --  -10.11763 -10.10084 -10.09030 -10.09026 -10.08559
  Beta  occ. eigenvalues --  -10.08351 -10.07295 -10.07209 -10.06941 -10.06419
  Beta  occ. eigenvalues --  -10.05951 -10.04945  -1.01427  -0.92463  -0.84944
  Beta  occ. eigenvalues --   -0.79555  -0.73896  -0.68902  -0.67051  -0.63826
  Beta  occ. eigenvalues --   -0.58599  -0.58203  -0.57849  -0.57631  -0.51666
  Beta  occ. eigenvalues --   -0.51544  -0.48465  -0.45798  -0.42785  -0.41844
  Beta  occ. eigenvalues --   -0.40668  -0.39188  -0.38584  -0.37470  -0.36632
  Beta  occ. eigenvalues --   -0.35628  -0.34571  -0.34302  -0.33604  -0.32412
  Beta  occ. eigenvalues --   -0.31655  -0.30664  -0.30240  -0.29305  -0.29106
  Beta  occ. eigenvalues --   -0.28350  -0.27697  -0.27356  -0.26366  -0.26117
  Beta  occ. eigenvalues --   -0.25125  -0.24451  -0.24222  -0.23141  -0.22461
  Beta  occ. eigenvalues --   -0.21476  -0.20599  -0.19832  -0.18646  -0.13846
  Beta  occ. eigenvalues --   -0.12418
  Beta virt. eigenvalues --    0.06078   0.07055   0.07276   0.07656   0.08075
  Beta virt. eigenvalues --    0.08710   0.09021   0.09724   0.09863   0.09960
  Beta virt. eigenvalues --    0.11018   0.11059   0.11165   0.11716   0.12055

 Mulliken charges and spin densities:
               1          2
     1  C   -0.412829  -0.196989
     2  C    0.044991   0.622589
     3  C   -0.280374  -0.286217
     4  C   -0.127992  -0.142429
     5  C    0.377654  -0.962427
     6  C   -0.592626   0.506563
     7  C   -0.038456  -0.546557
     8  N    0.456051  -0.110699
     9  C   -2.056244   1.063092
    10  C    1.438652  -1.583071
    11  N   -0.179966   0.170260
    12  C    0.314933  -0.495459
    13  C    0.823084  -1.110473
    14  C   -0.008167  -0.272979
    15  O   -0.217846   0.025472
    16  O   -0.112884   0.038822
    17  C    0.008069  -0.420678
    18  H    0.250168  -0.095310
    19  H   -0.050518   0.196592
    20  H    0.135671   0.018463
    21  H    0.014944   0.123926
    22  H    0.074241   0.075330
    23  H    0.003483   0.115467
    24  H   -0.173262   0.361488
    25  H    0.048463   0.122733
    26  H   -0.177680   0.308645
    27  H    0.036814   0.156829
    28  H    0.357063  -0.168718
    29  H    0.001835   0.163674
    30  H    0.447522  -0.172553
    31  H   -0.658213   0.818566
    32  H   -0.043669   0.239585
    33  H   -0.088980   0.355450
    34  H   -0.002144   0.186531
    35  H   -0.403932   0.576393
    36  H    0.019389   0.193667
    37  H   -0.376363   0.586007
    38  H   -0.053849   0.348689
    39  H    0.087424   0.040791
    40  H    0.020626   0.101722
    41  H    0.094919   0.047211
 Sum of Mulliken charges =  -1.00000   1.00000

 Dipole moment (field-independent basis, Debye):
    X=              6.1130    Y=              0.6943    Z=              1.3499  Tot=              6.2986
 Quadrupole moment (field-independent basis, Debye-Ang):
   XX=           -187.6297   YY=           -156.5364   ZZ=           -140.2850
   XY=             -1.0819   XZ=             -4.0423   YZ=             -1.5775

 Summary of Natural Population Analysis:

                                       Natural Population
                Natural  -----------------------------------------------
    Atom  No    Charge         Core      Valence    Rydberg      Total
 -----------------------------------------------------------------------
      C    1   -0.29062      0.99962     2.28384    0.00716     3.29062
      C    2   -0.04329      0.99957     2.03445    0.00927     3.04329
      C    3   -0.18739      0.99959     2.17782    0.00998     3.18739
      C    4   -0.19292      0.99963     2.18508    0.00821     3.19292
      C    5   -0.19252      0.99961     2.18420    0.00871     3.19252
      C    6   -0.01048      0.99958     1.99768    0.01322     3.01048
      C    7   -0.19492      0.99957     2.18440    0.01095     3.19492
      N    8   -0.35213      0.99969     2.84078    0.01166     3.85213
      C    9    0.06203      0.99955     1.92030    0.01812     2.93797
      C   10   -0.08903      0.99959     2.07815    0.01129     3.08903
      N   11   -0.34774      0.99976     2.83537    0.01261     3.84774
      C   12   -0.07916      0.99958     2.06832    0.01126     3.07916
      C   13   -0.24546      0.99951     2.23485    0.01110     3.24546
      C   14    0.42069      0.99972     1.55411    0.02548     2.57931
      O   15   -0.30972      0.99987     3.30425    0.00561     4.30972
      O   16   -0.34431      0.99987     3.33768    0.00675     4.34431
      C   17   -0.28040      0.99963     2.27512    0.00565     3.28040
      H   18    0.10945      0.00000     0.38939    0.00116     0.39055
      H   19    0.09080      0.00000     0.40842    0.00078     0.40920
      H   20    0.10555      0.00000     0.39347    0.00099     0.39445
      H   21    0.09435      0.00000     0.40458    0.00107     0.40565
      H   22    0.09727      0.00000     0.40188    0.00085     0.40273
      H   23    0.09500      0.00000     0.40374    0.00126     0.40500
      H   24    0.09814      0.00000     0.40092    0.00094     0.40186
      H   25    0.10115      0.00000     0.39783    0.00102     0.39885
      H   26    0.09852      0.00000     0.40040    0.00108     0.40148
      H   27    0.09055      0.00000     0.40746    0.00199     0.40945
      H   28    0.11193      0.00000     0.38647    0.00160     0.38807
      H   29    0.09529      0.00000     0.40372    0.00099     0.40471
      H   30    0.17959      0.00000     0.31673    0.00368     0.32041
      H   31    0.09019      0.00000     0.40630    0.00351     0.40981
      H   32    0.08974      0.00000     0.40871    0.00156     0.41026
      H   33    0.17655      0.00000     0.32047    0.00298     0.32345
      H   34    0.09168      0.00000     0.40687    0.00146     0.40832
      H   35    0.09374      0.00000     0.40356    0.00269     0.40626
      H   36    0.11239      0.00000     0.38639    0.00122     0.38761
      H   37    0.12114      0.00000     0.37631    0.00255     0.37886
      H   38    0.24091      0.00000     0.25476    0.00433     0.25909
      H   39    0.09582      0.00000     0.40339    0.00079     0.40418
      H   40    0.09622      0.00000     0.40301    0.00077     0.40378
      H   41    0.10140      0.00000     0.39782    0.00077     0.39860
 =======================================================================
   * Total *    0.00000     16.99393    48.77899    0.22708    66.00000

 Normal termination of Gaussian 16 at Fri Dec 11 14:04:24 2020.
