 Gaussian 16, Revision A.03,

 -----------------------------------------------------------
 # opt freq B3LYP/6-31G(d) empiricaldispersion=gd3bj scf=xqc
 -----------------------------------------------------------

 ------------------------------
 CID_17818293_JID_1169_neutraal
 ------------------------------
 Symbolic Z-matrix:
 Charge =  0 Multiplicity = 1

 SCF Done:  E(RB3LYP) =  -894.056040669     A.U. after   15 cycles
 SCF Done:  E(RB3LYP) =  -894.062186215     A.U. after   13 cycles
 SCF Done:  E(RB3LYP) =  -894.062784481     A.U. after   12 cycles
 SCF Done:  E(RB3LYP) =  -894.063033709     A.U. after   12 cycles
 SCF Done:  E(RB3LYP) =  -894.063157318     A.U. after   11 cycles
 SCF Done:  E(RB3LYP) =  -894.063209531     A.U. after   11 cycles
 SCF Done:  E(RB3LYP) =  -894.063257641     A.U. after   11 cycles
 SCF Done:  E(RB3LYP) =  -894.063295064     A.U. after   11 cycles
 SCF Done:  E(RB3LYP) =  -894.063320454     A.U. after   10 cycles
 SCF Done:  E(RB3LYP) =  -894.063331653     A.U. after   10 cycles
 SCF Done:  E(RB3LYP) =  -894.063559031     A.U. after   10 cycles
 SCF Done:  E(RB3LYP) =  -894.063564113     A.U. after   10 cycles
 SCF Done:  E(RB3LYP) =  -894.063565891     A.U. after   10 cycles
 SCF Done:  E(RB3LYP) =  -894.063566419     A.U. after    9 cycles
 SCF Done:  E(RB3LYP) =  -894.063566808     A.U. after    8 cycles
 SCF Done:  E(RB3LYP) =  -894.063566851     A.U. after    7 cycles
 Optimization completed.
    -- Stationary point found.
 Normal termination of Gaussian 16 at Tue Dec  8 19:26:22 2020.

 --------------------------------------------------------------------
 #N Geom=AllCheck Guess=TCheck SCRF=Check GenChk RB3LYP/6-31G(d) Freq
 --------------------------------------------------------------------

 Structure from the checkpoint file:  "JID_1169.chk"
 ------------------------------
 CID_17818293_JID_1169_neutraal
 ------------------------------
 Charge =  0 Multiplicity = 1

 SCF Done:  E(RB3LYP) =  -894.063566851     A.U. after    1 cycles

  Exact polarizability: 117.650   0.002  90.165  -0.001  -4.686  89.791
 Approx polarizability: 165.320   0.008 127.485  -0.000  -3.284 142.196

                      1                      2                      3
                      A                      A                      A
 Frequencies --     29.7261                46.6299                48.0621
 Red. masses --      3.0292                 3.5465                 5.2602
 Frc consts  --      0.0016                 0.0045                 0.0072
 IR Inten    --      0.0631                 1.9576                 1.3282

                      4                      5                      6
                      A                      A                      A
 Frequencies --     60.6871                94.9924               132.7200
 Red. masses --      5.8652                 6.2027                 4.0969
 Frc consts  --      0.0127                 0.0330                 0.0425
 IR Inten    --      3.7351                 0.5349                 7.0339

                      7                      8                      9
                      A                      A                      A
 Frequencies --    167.0511               173.0155               175.9401
 Red. masses --      1.0399                 1.0298                 1.0768
 Frc consts  --      0.0171                 0.0182                 0.0196
 IR Inten    --      0.0130                 1.0865                 0.9402

                     10                     11                     12
                      A                      A                      A
 Frequencies --    211.0310               240.9782               302.0853
 Red. masses --      3.3476                 3.9667                 5.7839
 Frc consts  --      0.0878                 0.1357                 0.3110
 IR Inten    --      0.7441                 6.3673                 0.9123

                     13                     14                     15
                      A                      A                      A
 Frequencies --    343.3370               406.8915               445.8923
 Red. masses --      6.1156                 8.0530                 1.5221
 Frc consts  --      0.4247                 0.7855                 0.1783
 IR Inten    --      0.1982                12.0580                25.1694

                     16                     17                     18
                      A                      A                      A
 Frequencies --    477.7847               505.0289               538.7797
 Red. masses --      3.3915                 2.5427                 1.6243
 Frc consts  --      0.4561                 0.3821                 0.2778
 IR Inten    --      0.6966                14.3471                33.1013

                     19                     20                     21
                      A                      A                      A
 Frequencies --    590.9108               613.3736               647.2551
 Red. masses --      4.0415                 2.5219                 1.9199
 Frc consts  --      0.8315                 0.5590                 0.4739
 IR Inten    --     24.2881                30.7230                39.1950

                     22                     23                     24
                      A                      A                      A
 Frequencies --    653.5928               685.6565               729.4188
 Red. masses --      3.0934                 3.3233                 6.3584
 Frc consts  --      0.7786                 0.9205                 1.9932
 IR Inten    --     19.2150               212.7758                38.1127

                     25                     26                     27
                      A                      A                      A
 Frequencies --    834.9318               872.9149               992.2946
 Red. masses --      4.5204                 3.4283                 1.1891
 Frc consts  --      1.8566                 1.5391                 0.6899
 IR Inten    --      0.0173                 8.2444                 5.3520

                     28                     29                     30
                      A                      A                      A
 Frequencies --    994.2358              1024.2961              1044.6690
 Red. masses --      1.3026                 1.5885                 1.5926
 Frc consts  --      0.7586                 0.9820                 1.0240
 IR Inten    --     18.4974                43.1804                 7.2339

                     31                     32                     33
                      A                      A                      A
 Frequencies --   1068.9538              1069.9181              1139.0712
 Red. masses --      1.7323                 1.7371                 2.7710
 Frc consts  --      1.1663                 1.1716                 2.1183
 IR Inten    --      0.1000                11.5151                72.2029

                     34                     35                     36
                      A                      A                      A
 Frequencies --   1182.8650              1315.4632              1319.4364
 Red. masses --      5.2332                 1.1561                 1.7049
 Frc consts  --      4.3141                 1.1787                 1.7487
 IR Inten    --     64.2479                20.0627               253.1162

                     37                     38                     39
                      A                      A                      A
 Frequencies --   1329.9171              1359.6164              1386.2958
 Red. masses --      1.8178                 2.2206                 1.1705
 Frc consts  --      1.8943                 2.4186                 1.3254
 IR Inten    --    233.9802                43.9932                 1.8117

                     40                     41                     42
                      A                      A                      A
 Frequencies --   1421.3627              1427.9818              1488.1123
 Red. masses --      1.4044                 1.5763                 1.4839
 Frc consts  --      1.6717                 1.8938                 1.9361
 IR Inten    --     68.7288               101.8846                83.9169

                     43                     44                     45
                      A                      A                      A
 Frequencies --   1496.0206              1504.9030              1508.7271
 Red. masses --      1.3810                 1.0510                 1.1227
 Frc consts  --      1.8211                 1.4025                 1.5056
 IR Inten    --     28.2011                13.1166                 6.2527

                     46                     47                     48
                      A                      A                      A
 Frequencies --   1508.9521              1515.2110              1516.2459
 Red. masses --      1.0878                 1.0618                 1.0552
 Frc consts  --      1.4593                 1.4363                 1.4294
 IR Inten    --     45.7872                 0.3038                22.4252

                     49                     50                     51
                      A                      A                      A
 Frequencies --   1517.0066              1806.6127              1817.0840
 Red. masses --      1.0954                 8.5844                 7.7844
 Frc consts  --      1.4852                16.5079                15.1435
 IR Inten    --      4.8995               552.9283               156.3570

                     52                     53                     54
                      A                      A                      A
 Frequencies --   3058.8690              3058.9593              3061.6351
 Red. masses --      1.0392                 1.0393                 1.0312
 Frc consts  --      5.7290                 5.7296                 5.6950
 IR Inten    --      3.1936                 5.1359                20.5265

                     55                     56                     57
                      A                      A                      A
 Frequencies --   3121.9110              3121.9860              3142.4906
 Red. masses --      1.1007                 1.1007                 1.1081
 Frc consts  --      6.3204                 6.3208                 6.4475
 IR Inten    --      3.4074                 9.2752                 9.1135

                     58                     59                     60
                      A                      A                      A
 Frequencies --   3150.5073              3163.8696              3182.9982
 Red. masses --      1.0868                 1.1023                 1.1003
 Frc consts  --      6.3557                 6.5010                 6.5679
 IR Inten    --      5.2289                 1.7857                10.9913

                     61                     62                     63
                      A                      A                      A
 Frequencies --   3183.2507              3578.4549              3579.3537
 Red. masses --      1.1002                 1.0761                 1.0752
 Frc consts  --      6.5685                 8.1190                 8.1158
 IR Inten    --      0.5287                 0.0690                28.2859

 - Thermochemistry -
 -------------------
 Temperature   298.150 Kelvin.  Pressure   1.00000 Atm.
 Atom     1 has atomic number  6 and mass  12.00000

 Molecular mass:   176.06195 amu.
 Principal axes and moments of inertia in atomic units:
                           1         2         3
     Eigenvalues --  1368.350993210.256233592.26294
           X            1.00000  -0.00002  -0.00000
           Y            0.00002   0.98798  -0.15459
           Z            0.00000   0.15459   0.98798
 This molecule is an asymmetric top.
 Rotational symmetry number  1.
 Warning -- assumption of classical behavior for rotation
           may cause significant error
 Rotational temperatures (Kelvin)      0.06330     0.02698     0.02411
 Rotational constants (GHZ):           1.31892     0.56218     0.50240
 Zero-point vibrational energy     491594.8 (Joules/Mol)
                                  117.49397 (Kcal/Mol)
 Warning -- explicit consideration of  20 degrees of freedom as
           vibrations may cause significant error
 Vibrational temperatures:     42.77    67.09    69.15    87.32   136.67
          (Kelvin)            190.95   240.35   248.93   253.14   303.63
                              346.71   434.63   493.99   585.43   641.54
                              687.43   726.62   775.18   850.19   882.51
                              931.26   940.37   986.51  1049.47  1201.28
                             1255.93  1427.69  1430.48  1473.73  1503.05
                             1537.99  1539.37  1638.87  1701.88  1892.66
                             1898.37  1913.45  1956.18  1994.57  2045.02
                             2054.55  2141.06  2152.44  2165.22  2170.72
                             2171.05  2180.05  2181.54  2182.63  2599.31
                             2614.38  4401.03  4401.16  4405.01  4491.73
                             4491.84  4521.34  4532.88  4552.10  4579.62
                             4579.99  5148.60  5149.89

 Zero-point correction=                           0.187239 (Hartree/Particle)
 Thermal correction to Energy=                    0.201009
 Thermal correction to Enthalpy=                  0.201953
 Thermal correction to Gibbs Free Energy=         0.144990
 Sum of electronic and zero-point Energies=           -893.876328
 Sum of electronic and thermal Energies=              -893.862558
 Sum of electronic and thermal Enthalpies=            -893.861614
 Sum of electronic and thermal Free Energies=         -893.918577

                     E (Thermal)             CV                S
                      KCal/Mol        Cal/Mol-Kelvin    Cal/Mol-Kelvin
 Total                  126.135             47.446            119.889
 Electronic               0.000              0.000              0.000
 Translational            0.889              2.981             41.404
 Rotational               0.889              2.981             31.135
 Vibrational            124.357             41.484             47.350
 Vibration     1          0.594              1.984              5.848
 Vibration     2          0.595              1.979              4.955
 Vibration     3          0.595              1.978              4.896
 Vibration     4          0.597              1.973              4.435
 Vibration     5          0.603              1.953              3.555
 Vibration     6          0.613              1.921              2.906
 Vibration     7          0.624              1.883              2.468
 Vibration     8          0.627              1.876              2.402
 Vibration     9          0.628              1.872              2.371
 Vibration    10          0.643              1.824              2.035
 Vibration    11          0.658              1.778              1.796
 Vibration    12          0.694              1.670              1.405
 Vibration    13          0.722              1.589              1.197
 Vibration    14          0.772              1.455              0.938
 Vibration    15          0.805              1.370              0.808
 Vibration    16          0.834              1.299              0.716
 Vibration    17          0.860              1.239              0.646
 Vibration    18          0.894              1.164              0.568
 Vibration    19          0.948              1.051              0.466
 Vibration    20          0.973              1.004              0.427

 Optimization completed.
    -- Stationary point found.
 Normal termination of Gaussian 16 at Tue Dec  8 19:31:08 2020.

 ----------------------------------------------------------------------
 # B3LYP/6-311++G(d,p) empiricaldispersion=gd3bj scf=xqc pop=npa geom=c
 heck
 ----------------------------------------------------------------------

 --------------------------------------
 CID_17818293_JID_1169_Energie_neutraal
 --------------------------------------
 Structure from the checkpoint file:  "JID_1169.chk"
 Charge =  0 Multiplicity = 1

 SCF Done:  E(RB3LYP) =  -894.249546081     A.U. after   15 cycles
 Normal termination of Gaussian 16 at Tue Dec  8 19:33:24 2020.

 ----------------------------------------------------------------------
 # B3LYP/6-311++G(d,p) empiricaldispersion=gd3bj scf=xqc pop=npa geom=c
 heck
 ----------------------------------------------------------------------

 ------------------------------------
 CID_17818293_JID_1169_Energie_kation
 ------------------------------------
 Structure from the checkpoint file:  "JID_1169.chk"
 Charge =  1 Multiplicity = 2

 SCF Done:  E(UB3LYP) =  -893.926162306     A.U. after   24 cycles
 Normal termination of Gaussian 16 at Tue Dec  8 19:38:29 2020.
 Gaussian 16:  ES64L-G16RevA.03 25-Dec-2016

 ----------------------------------------------------------------------
 # B3LYP/6-311++G(d,p) empiricaldispersion=gd3bj scf=xqc pop=npa geom=c
 heck
 ----------------------------------------------------------------------

 -----------------------------------
 CID_17818293_JID_1169_Energie_anion
 -----------------------------------
 Structure from the checkpoint file:  "JID_1169.chk"
 Charge = -1 Multiplicity = 2

                         Standard orientation:
 ---------------------------------------------------------------------
 Center     Atomic      Atomic             Coordinates (Angstroms)
 Number     Number       Type             X           Y           Z
 ---------------------------------------------------------------------
      1          6           0       -2.582519   -1.149546    1.133626
      2          6           0       -2.450035   -0.687259   -0.303070
      3          8           0       -3.398236   -0.575852   -1.061847
      4          7           0       -1.167637   -0.415288   -0.752733
      5          6           0        0.000082   -0.210340    0.060757
      6          7           0        1.167907   -0.414728   -0.752670
      7          6           0        2.450243   -0.687061   -0.302946
      8          8           0        3.398598   -0.574841   -1.061387
      9          6           0        2.582389   -1.150489    1.133405
     10         16           0       -0.000244    1.440806    0.980367
     11          6           0       -0.000218    2.564275   -0.456016
     12          1           0       -3.628512   -1.398408    1.312785
     13          1           0       -2.273946   -0.356165    1.823353
     14          1           0       -1.963162   -2.032516    1.329550
     15          1           0       -1.161803   -0.021734   -1.687216
     16          1           0        0.000240   -0.932840    0.875705
     17          1           0        1.162414   -0.020121   -1.686711
     18          1           0        2.274276   -0.357329    1.823610
     19          1           0        1.962497   -2.033199    1.328778
     20          1           0        3.628219   -1.400093    1.312477
     21          1           0        0.899049    2.428064   -1.063736
     22          1           0       -0.898970    2.427251   -1.064325
     23          1           0       -0.000831    3.582370   -0.060980
 ---------------------------------------------------------------------

 SCF Done:  E(UB3LYP) =  -894.240941952     A.U. after   30 cycles

 The electronic state is 2-A.
 Alpha  occ. eigenvalues --  -88.73381 -18.99555 -18.99553 -14.24675 -14.24675
 Alpha  occ. eigenvalues --  -10.18241 -10.18082 -10.18081 -10.08722 -10.07647
 Alpha  occ. eigenvalues --  -10.07646  -7.82005  -5.78385  -5.78058  -5.77379
 Alpha  occ. eigenvalues --   -0.95051  -0.94684  -0.86905  -0.80298  -0.67947
 Alpha  occ. eigenvalues --   -0.65116  -0.64336  -0.60866  -0.53208  -0.49928
 Alpha  occ. eigenvalues --   -0.47018  -0.44217  -0.39998  -0.37495  -0.37282
 Alpha  occ. eigenvalues --   -0.35394  -0.35353  -0.33537  -0.32362  -0.31624
 Alpha  occ. eigenvalues --   -0.31517  -0.30592  -0.30315  -0.29489  -0.27468
 Alpha  occ. eigenvalues --   -0.26684  -0.23576  -0.18569  -0.17172  -0.16010
 Alpha  occ. eigenvalues --   -0.15889  -0.12716   0.04526
 Alpha virt. eigenvalues --    0.05981   0.08077   0.08516   0.08842   0.10269
 Alpha virt. eigenvalues --    0.10486   0.10755   0.11570   0.11681   0.13024
 Alpha virt. eigenvalues --    0.13048   0.13229   0.13256   0.14946   0.15342

  Beta  occ. eigenvalues --  -88.73355 -18.99517 -18.99515 -14.24671 -14.24671
  Beta  occ. eigenvalues --  -10.18171 -10.18034 -10.18032 -10.08618 -10.07617
  Beta  occ. eigenvalues --  -10.07615  -7.81981  -5.78295  -5.78048  -5.77366
  Beta  occ. eigenvalues --   -0.94978  -0.94609  -0.86855  -0.80263  -0.67790
  Beta  occ. eigenvalues --   -0.65030  -0.64262  -0.60749  -0.53068  -0.49823
  Beta  occ. eigenvalues --   -0.46910  -0.44170  -0.39883  -0.37392  -0.37113
  Beta  occ. eigenvalues --   -0.35308  -0.35241  -0.33416  -0.32266  -0.31555
  Beta  occ. eigenvalues --   -0.31454  -0.30539  -0.30275  -0.29401  -0.27357
  Beta  occ. eigenvalues --   -0.26502  -0.23367  -0.18469  -0.17112  -0.15971
  Beta  occ. eigenvalues --   -0.15756  -0.12637
  Beta virt. eigenvalues --    0.07133   0.07516   0.08376   0.08652   0.09712
  Beta virt. eigenvalues --    0.10744   0.10998   0.11360   0.11963   0.12240
  Beta virt. eigenvalues --    0.13041   0.13199   0.13560   0.13602   0.15159

 Mulliken charges and spin densities:
               1          2
     1  C    0.088160  -0.556943
     2  C    0.056851   0.043473
     3  O   -0.344051   0.021541
     4  N   -0.146745  -0.036193
     5  C   -0.003825  -0.144653
     6  N   -0.146605  -0.036086
     7  C    0.056802   0.043808
     8  O   -0.344045   0.021544
     9  C    0.088678  -0.557630
    10  S   -0.273837   0.449835
    11  C    0.687599  -1.475902
    12  H    0.072226   0.111229
    13  H    0.037216   0.116367
    14  H   -0.378394   0.552514
    15  H    0.197512   0.095700
    16  H    0.372639  -0.035757
    17  H    0.197505   0.095651
    18  H    0.037129   0.116544
    19  H   -0.378449   0.552577
    20  H    0.071902   0.111604
    21  H   -0.182687   0.380124
    22  H   -0.183000   0.380514
    23  H   -0.582580   0.750137
 Sum of Mulliken charges =  -1.00000   1.00000

 Dipole moment (field-independent basis, Debye):
    X=              0.0004    Y=             -0.5782    Z=              1.3111  Tot=              1.4330
 Quadrupole moment (field-independent basis, Debye-Ang):
   XX=           -127.4186   YY=           -123.6124   ZZ=           -105.8324
   XY=             -0.0025   XZ=             -0.0048   YZ=             10.6272

 Summary of Natural Population Analysis:

                                       Natural Population
                Natural  -----------------------------------------------
    Atom  No    Charge         Core      Valence    Rydberg      Total
 -----------------------------------------------------------------------
      C    1   -0.33925      0.99962     2.33497    0.00466     3.33925
      C    2    0.35546      0.99970     1.62284    0.02200     2.64454
      O    3   -0.31397      0.99987     3.30827    0.00583     4.31397
      N    4   -0.33104      0.99964     2.81943    0.01196     3.83104
      C    5    0.02772      0.99960     1.95031    0.02237     2.97228
      N    6   -0.33104      0.99964     2.81944    0.01196     3.83104
      C    7    0.35547      0.99970     1.62283    0.02200     2.64453
      O    8   -0.31395      0.99987     3.30825    0.00583     4.31395
      C    9   -0.33925      0.99962     2.33497    0.00466     3.33925
      S   10    0.07810      4.99965     2.90669    0.01556     7.92190
      C   11   -0.35452      0.99961     2.34800    0.00691     3.35452
      H   12    0.11118      0.00000     0.38807    0.00075     0.38882
      H   13    0.11596      0.00000     0.38303    0.00101     0.38404
      H   14    0.11357      0.00000     0.38381    0.00263     0.38643
      H   15    0.19652      0.00000     0.30124    0.00224     0.30348
      H   16    0.11344      0.00000     0.38516    0.00141     0.38656
      H   17    0.19651      0.00000     0.30124    0.00224     0.30349
      H   18    0.11596      0.00000     0.38303    0.00101     0.38404
      H   19    0.11356      0.00000     0.38381    0.00263     0.38644
      H   20    0.11119      0.00000     0.38807    0.00075     0.38881
      H   21    0.10312      0.00000     0.39460    0.00228     0.39688
      H   22    0.10313      0.00000     0.39459    0.00228     0.39687
      H   23    0.11213      0.00000     0.38657    0.00129     0.38787
 =======================================================================
   * Total *   -0.00000     14.99655    31.84920    0.15426    47.00000

 Normal termination of Gaussian 16 at Tue Dec  8 19:44:46 2020.
