 Gaussian 16, Revision A.03,

 -----------------------------------------------------------
 # opt freq B3LYP/6-31G(d) empiricaldispersion=gd3bj scf=xqc
 -----------------------------------------------------------

 ------------------------------
 CID_13090147_JID_1491_neutraal
 ------------------------------
 Symbolic Z-matrix:
 Charge =  0 Multiplicity = 1

 SCF Done:  E(RB3LYP) =  -858.306732291     A.U. after   15 cycles
 SCF Done:  E(RB3LYP) =  -858.312814242     A.U. after   12 cycles
 SCF Done:  E(RB3LYP) =  -858.313666812     A.U. after   11 cycles
 SCF Done:  E(RB3LYP) =  -858.313765986     A.U. after   11 cycles
 SCF Done:  E(RB3LYP) =  -858.313834350     A.U. after   12 cycles
 SCF Done:  E(RB3LYP) =  -858.313858937     A.U. after   11 cycles
 SCF Done:  E(RB3LYP) =  -858.313886770     A.U. after   11 cycles
 SCF Done:  E(RB3LYP) =  -858.313897149     A.U. after    9 cycles
 SCF Done:  E(RB3LYP) =  -858.313898462     A.U. after   10 cycles
 SCF Done:  E(RB3LYP) =  -858.313898758     A.U. after    7 cycles
 SCF Done:  E(RB3LYP) =  -858.313921361     A.U. after   10 cycles
 SCF Done:  E(RB3LYP) =  -858.313937439     A.U. after   10 cycles
 SCF Done:  E(RB3LYP) =  -858.313937949     A.U. after    8 cycles
 SCF Done:  E(RB3LYP) =  -858.313938078     A.U. after    8 cycles
 SCF Done:  E(RB3LYP) =  -858.313938114     A.U. after    7 cycles
 Optimization completed.
    -- Stationary point found.
 Normal termination of Gaussian 16 at Tue Dec  8 20:12:51 2020.

 --------------------------------------------------------------------
 #N Geom=AllCheck Guess=TCheck SCRF=Check GenChk RB3LYP/6-31G(d) Freq
 --------------------------------------------------------------------

 Structure from the checkpoint file:  "JID_1491.chk"
 ------------------------------
 CID_13090147_JID_1491_neutraal
 ------------------------------
 Charge =  0 Multiplicity = 1

 SCF Done:  E(RB3LYP) =  -858.313938114     A.U. after    1 cycles

  Exact polarizability: 154.336  -0.238  97.098   1.236   1.593  60.587
 Approx polarizability: 219.912  -0.209 170.983   8.413   6.315  91.830

                      1                      2                      3
                      A                      A                      A
 Frequencies --     24.8548                69.7527                98.4179
 Red. masses --      3.5575                 2.4549                 3.8073
 Frc consts  --      0.0013                 0.0070                 0.0217
 IR Inten    --      1.9145                 6.6990                 2.1731

                      4                      5                      6
                      A                      A                      A
 Frequencies --    158.4606               196.0399               239.1975
 Red. masses --      1.0817                 4.8669                 6.2113
 Frc consts  --      0.0160                 0.1102                 0.2094
 IR Inten    --      0.0253                 0.2053                 0.1372

                      7                      8                      9
                      A                      A                      A
 Frequencies --    254.2117               346.8858               381.6703
 Red. masses --      5.7975                 8.3788                 7.5468
 Frc consts  --      0.2207                 0.5940                 0.6477
 IR Inten    --      0.0931                 0.7687                 2.0417

                     10                     11                     12
                      A                      A                      A
 Frequencies --    435.6808               445.8791               595.7290
 Red. masses --      3.1334                 5.0884                 6.6580
 Frc consts  --      0.3504                 0.5960                 1.3922
 IR Inten    --      2.3355                 3.4937                 2.6817

                     13                     14                     15
                      A                      A                      A
 Frequencies --    609.1865               694.6260               707.6126
 Red. masses --      4.6619                 6.2563                 7.4639
 Frc consts  --      1.0193                 1.7786                 2.2019
 IR Inten    --      6.8387                 1.5193                 1.7041

                     16                     17                     18
                      A                      A                      A
 Frequencies --    712.8952               741.1879               823.7816
 Red. masses --      6.1320                 8.4599                 1.3557
 Frc consts  --      1.8361                 2.7382                 0.5420
 IR Inten    --      0.1376                 1.7736                28.5392

                     19                     20                     21
                      A                      A                      A
 Frequencies --    833.2948               875.9683               906.3447
 Red. masses --      6.3756                 1.3375                 5.6059
 Frc consts  --      2.6084                 0.6047                 2.7132
 IR Inten    --     10.7877                13.3889                15.3183

                     22                     23                     24
                      A                      A                      A
 Frequencies --    931.8726               974.4899               988.0037
 Red. masses --      1.2832                 9.4240                 1.1797
 Frc consts  --      0.6565                 5.2728                 0.6785
 IR Inten    --      0.1631                40.9590                 3.2887

                     25                     26                     27
                      A                      A                      A
 Frequencies --   1006.9700              1075.5686              1083.7686
 Red. masses --      1.3104                 4.5562                 2.3140
 Frc consts  --      0.7829                 3.1055                 1.6013
 IR Inten    --     26.0992               116.3614                 3.4155

                     28                     29                     30
                      A                      A                      A
 Frequencies --   1137.2359              1153.4405              1184.1367
 Red. masses --      1.8569                 1.5170                 1.9756
 Frc consts  --      1.4149                 1.1891                 1.6322
 IR Inten    --     22.6947                12.0240                 2.4571

                     31                     32                     33
                      A                      A                      A
 Frequencies --   1213.9847              1282.2037              1292.8600
 Red. masses --      1.1079                 2.1902                 2.0074
 Frc consts  --      0.9620                 2.1215                 1.9769
 IR Inten    --      1.5794               171.7653               124.4611

                     34                     35                     36
                      A                      A                      A
 Frequencies --   1383.8950              1384.6538              1447.9423
 Red. masses --      1.1693                 4.7998                 1.4488
 Frc consts  --      1.3194                 5.4219                 1.7897
 IR Inten    --      6.6350                16.2337                 6.3543

                     37                     38                     39
                      A                      A                      A
 Frequencies --   1467.2227              1496.2185              1513.7447
 Red. masses --      3.0929                 1.0579                 1.0549
 Frc consts  --      3.9230                 1.3954                 1.4242
 IR Inten    --     19.1123                 9.5138                 6.8107

                     40                     41                     42
                      A                      A                      A
 Frequencies --   1529.2628              1574.9220              1660.3637
 Red. masses --      3.2089                 1.1468                 7.0671
 Frc consts  --      4.4215                 1.6760                11.4788
 IR Inten    --    321.4681                 0.0337                 5.1744

                     43                     44                     45
                      A                      A                      A
 Frequencies --   1668.8368              3035.2517              3063.9723
 Red. masses --      8.3507                 1.0651                 1.0290
 Frc consts  --     13.7026                 5.7815                 5.6915
 IR Inten    --      0.8340               135.2837                28.7029

                     46                     47                     48
                      A                      A                      A
 Frequencies --   3119.5509              3152.0165              3156.4206
 Red. masses --      1.1066                 1.1079                 1.1054
 Frc consts  --      6.3447                 6.4852                 6.4889
 IR Inten    --     51.5409                11.3642                10.7178

                     49                     50                     51
                      A                      A                      A
 Frequencies --   3216.6331              3231.5399              3233.7863
 Red. masses --      1.0887                 1.0942                 1.0926
 Frc consts  --      6.6370                 6.7325                 6.7321
 IR Inten    --      2.1633                 5.8309                 0.4231

 - Thermochemistry -
 -------------------
 Temperature   298.150 Kelvin.  Pressure   1.00000 Atm.
 Atom     1 has atomic number  6 and mass  12.00000

 Molecular mass:   168.02450 amu.
 Principal axes and moments of inertia in atomic units:
                           1         2         3
     Eigenvalues --   706.126083298.990513744.62543
           X            0.99986   0.00333  -0.01614
           Y           -0.00353   0.99992  -0.01213
           Z            0.01610   0.01219   0.99980
 This molecule is an asymmetric top.
 Rotational symmetry number  1.
 Warning -- assumption of classical behavior for rotation
           may cause significant error
 Rotational temperatures (Kelvin)      0.12266     0.02625     0.02313
 Rotational constants (GHZ):           2.55583     0.54706     0.48196
 Zero-point vibrational energy     381683.2 (Joules/Mol)
                                   91.22447 (Kcal/Mol)
 Warning -- explicit consideration of  13 degrees of freedom as
           vibrations may cause significant error
 Vibrational temperatures:     35.76   100.36   141.60   227.99   282.06
          (Kelvin)            344.15   365.75   499.09   549.14   626.85
                              641.52   857.12   876.48   999.41  1018.10
                             1025.70  1066.40  1185.24  1198.93  1260.32
                             1304.03  1340.76  1402.07  1421.52  1448.81
                             1547.50  1559.30  1636.23  1659.54  1703.71
                             1746.65  1844.81  1860.14  1991.12  1992.21
                             2083.27  2111.01  2152.72  2177.94  2200.27
                             2265.96  2388.89  2401.08  4367.05  4408.37
                             4488.34  4535.05  4541.39  4628.02  4649.47
                             4652.70

 Zero-point correction=                           0.145375 (Hartree/Particle)
 Thermal correction to Energy=                    0.155408
 Thermal correction to Enthalpy=                  0.156352
 Thermal correction to Gibbs Free Energy=         0.108175
 Sum of electronic and zero-point Energies=           -858.168563
 Sum of electronic and thermal Energies=              -858.158530
 Sum of electronic and thermal Enthalpies=            -858.157586
 Sum of electronic and thermal Free Energies=         -858.205763

                     E (Thermal)             CV                S
                      KCal/Mol        Cal/Mol-Kelvin    Cal/Mol-Kelvin
 Total                   97.520             36.673            101.398
 Electronic               0.000              0.000              0.000
 Translational            0.889              2.981             41.265
 Rotational               0.889              2.981             30.546
 Vibrational             95.743             30.712             29.587
 Vibration     1          0.593              1.985              6.203
 Vibration     2          0.598              1.969              4.160
 Vibration     3          0.604              1.950              3.485
 Vibration     4          0.621              1.893              2.568
 Vibration     5          0.636              1.845              2.170
 Vibration     6          0.657              1.781              1.809
 Vibration     7          0.665              1.756              1.701
 Vibration     8          0.725              1.582              1.180
 Vibration     9          0.751              1.509              1.033
 Vibration    10          0.796              1.392              0.840
 Vibration    11          0.805              1.370              0.808
 Vibration    12          0.953              1.041              0.457
 Vibration    13          0.968              1.012              0.434

 Optimization completed.
    -- Stationary point found.
 Normal termination of Gaussian 16 at Tue Dec  8 20:16:37 2020.

 ----------------------------------------------------------------------
 # B3LYP/6-311++G(d,p) empiricaldispersion=gd3bj scf=xqc pop=npa geom=c
 heck
 ----------------------------------------------------------------------

 --------------------------------------
 CID_13090147_JID_1491_Energie_neutraal
 --------------------------------------
 Structure from the checkpoint file:  "JID_1491.chk"
 Charge =  0 Multiplicity = 1

 SCF Done:  E(RB3LYP) =  -858.465352682     A.U. after   16 cycles
 Normal termination of Gaussian 16 at Tue Dec  8 20:19:06 2020.

 ----------------------------------------------------------------------
 # B3LYP/6-311++G(d,p) empiricaldispersion=gd3bj scf=xqc pop=npa geom=c
 heck
 ----------------------------------------------------------------------

 ------------------------------------
 CID_13090147_JID_1491_Energie_kation
 ------------------------------------
 Structure from the checkpoint file:  "JID_1491.chk"
 Charge =  1 Multiplicity = 2

 SCF Done:  E(UB3LYP) =  -858.177475022     A.U. after   23 cycles
 Normal termination of Gaussian 16 at Tue Dec  8 20:23:04 2020.
 Gaussian 16:  ES64L-G16RevA.03 25-Dec-2016

 ----------------------------------------------------------------------
 # B3LYP/6-311++G(d,p) empiricaldispersion=gd3bj scf=xqc pop=npa geom=c
 heck
 ----------------------------------------------------------------------

 -----------------------------------
 CID_13090147_JID_1491_Energie_anion
 -----------------------------------
 Structure from the checkpoint file:  "JID_1491.chk"
 Charge = -1 Multiplicity = 2

                         Standard orientation:
 ---------------------------------------------------------------------
 Center     Atomic      Atomic             Coordinates (Angstroms)
 Number     Number       Type             X           Y           Z
 ---------------------------------------------------------------------
      1          6           0       -3.350725   -0.698993    1.080248
      2         16           0       -2.864403   -0.054191   -0.566280
      3          6           0       -1.116613    0.222422   -0.285722
      4          6           0       -0.224690   -0.873184   -0.321173
      5          6           0        1.109493   -0.599201   -0.112650
      6          6           0        1.573475    0.697169    0.110015
      7          6           0        0.720150    1.780880    0.139827
      8          6           0       -0.647418    1.519454   -0.060520
      9          8           0        2.933300    0.675576    0.297099
     10          6           0        3.341888   -0.669513    0.017821
     11          8           0        2.164868   -1.479750   -0.072697
     12          1           0       -4.419869   -0.923147    1.031261
     13          1           0       -3.173056    0.049340    1.856618
     14          1           0       -2.803379   -1.614927    1.317295
     15          1           0       -0.576850   -1.880374   -0.510651
     16          1           0        1.089436    2.785260    0.313843
     17          1           0       -1.356865    2.339520   -0.044057
     18          1           0        3.879949   -0.695854   -0.939595
     19          1           0        3.972395   -1.033572    0.833465
 ---------------------------------------------------------------------

 SCF Done:  E(UB3LYP) =  -858.448802891     A.U. after   33 cycles
 SCF Done:  E(UB3LYP) =  -858.448802891     a.u. after    1 cycles

 The electronic state is 2-A.
 Alpha  occ. eigenvalues --  -88.73889 -19.07127 -19.07114 -10.18882 -10.13993
 Alpha  occ. eigenvalues --  -10.13779 -10.10303 -10.08611 -10.08541 -10.08370
 Alpha  occ. eigenvalues --  -10.08230  -7.82465  -5.78873  -5.78511  -5.77820
 Alpha  occ. eigenvalues --   -1.03378  -0.94279  -0.77178  -0.69761  -0.66388
 Alpha  occ. eigenvalues --   -0.64380  -0.58358  -0.54561  -0.53109  -0.50014
 Alpha  occ. eigenvalues --   -0.42852  -0.42413  -0.42076  -0.38887  -0.35555
 Alpha  occ. eigenvalues --   -0.34339  -0.32903  -0.31891  -0.31245  -0.30203
 Alpha  occ. eigenvalues --   -0.29103  -0.28005  -0.27267  -0.26213  -0.23391
 Alpha  occ. eigenvalues --   -0.20870  -0.15802  -0.12925  -0.11560   0.04727
 Alpha virt. eigenvalues --    0.06147   0.07528   0.07707   0.08841   0.08846
 Alpha virt. eigenvalues --    0.09514   0.09978   0.10260   0.11709   0.12561
 Alpha virt. eigenvalues --    0.13060   0.13424   0.14184   0.15699   0.16095

  Beta  occ. eigenvalues --  -88.73883 -19.07127 -19.07091 -10.18832 -10.14010
  Beta  occ. eigenvalues --  -10.13711 -10.10286 -10.08610 -10.08452 -10.08319
  Beta  occ. eigenvalues --  -10.08213  -7.82459  -5.78860  -5.78500  -5.77817
  Beta  occ. eigenvalues --   -1.03349  -0.94253  -0.77116  -0.69669  -0.66334
  Beta  occ. eigenvalues --   -0.64275  -0.58261  -0.54456  -0.53061  -0.49968
  Beta  occ. eigenvalues --   -0.42797  -0.42351  -0.42025  -0.38819  -0.35513
  Beta  occ. eigenvalues --   -0.34273  -0.32838  -0.31811  -0.31173  -0.30097
  Beta  occ. eigenvalues --   -0.29029  -0.27914  -0.27230  -0.26165  -0.23296
  Beta  occ. eigenvalues --   -0.20777  -0.15626  -0.12876  -0.11410
  Beta virt. eigenvalues --    0.07134   0.07448   0.08044   0.08104   0.08973
  Beta virt. eigenvalues --    0.09744   0.10061   0.10372   0.10886   0.12050
  Beta virt. eigenvalues --    0.12618   0.13337   0.13688   0.14295   0.15541

 Mulliken charges and spin densities:
               1          2
     1  C    0.882499  -1.601485
     2  S   -0.374299   0.180963
     3  C    1.233501  -0.055484
     4  C   -1.397557   0.535125
     5  C    0.677307  -0.317587
     6  C    0.626924  -0.320158
     7  C   -0.983261   0.338428
     8  C   -0.424953  -0.117164
     9  O   -0.231080   0.091122
    10  C    1.858599  -1.910478
    11  O   -0.239906   0.092699
    12  H   -0.515124   0.679385
    13  H   -0.295324   0.471021
    14  H   -0.245243   0.417161
    15  H   -0.130949   0.338525
    16  H   -0.124013   0.294394
    17  H    0.032342   0.144577
    18  H   -0.640658   0.836870
    19  H   -0.708803   0.902086
 Sum of Mulliken charges =  -1.00000   1.00000

 Dipole moment (field-independent basis, Debye):
    X=             -0.6179    Y=              3.1962    Z=             -1.9011  Tot=              3.7698
 Quadrupole moment (field-independent basis, Debye-Ang):
   XX=           -166.5844   YY=            -98.6186   ZZ=           -102.6627
   XY=              0.9993   XZ=              8.0443   YZ=              3.3924

 Summary of Natural Population Analysis:

                                       Natural Population
                Natural  -----------------------------------------------
    Atom  No    Charge         Core      Valence    Rydberg      Total
 -----------------------------------------------------------------------
      C    1   -0.34045      0.99962     2.33453    0.00630     3.34045
      S    2    0.09557      4.99956     2.88191    0.02296     7.90443
      C    3   -0.09465      0.99943     2.08257    0.01265     3.09465
      C    4   -0.11443      0.99945     2.10496    0.01002     3.11443
      C    5    0.13005      0.99932     1.85603    0.01460     2.86995
      C    6    0.14450      0.99933     1.84192    0.01425     2.85550
      C    7   -0.12665      0.99952     2.11825    0.00889     3.12665
      C    8   -0.10310      0.99950     2.09323    0.01037     3.10310
      O    9   -0.26990      0.99987     3.26167    0.00836     4.26990
      C   10    0.15715      0.99962     1.82744    0.01579     2.84285
      O   11   -0.27151      0.99987     3.26333    0.00831     4.27151
      H   12    0.10758      0.00000     0.38956    0.00286     0.39242
      H   13    0.10186      0.00000     0.39612    0.00202     0.39814
      H   14    0.10142      0.00000     0.39646    0.00212     0.39858
      H   15    0.11099      0.00000     0.38761    0.00140     0.38901
      H   16    0.10664      0.00000     0.39236    0.00099     0.39336
      H   17    0.10481      0.00000     0.39387    0.00132     0.39519
      H   18    0.07533      0.00000     0.42067    0.00399     0.42467
      H   19    0.08480      0.00000     0.41037    0.00483     0.41520
 =======================================================================
   * Total *    0.00000     14.99510    28.85287    0.15203    44.00000

 Normal termination of Gaussian 16 at Tue Dec  8 20:31:10 2020.
