 Gaussian 16, Revision A.03,

 -----------------------------------------------------------
 # opt freq B3LYP/6-31G(d) empiricaldispersion=gd3bj scf=xqc
 -----------------------------------------------------------

 -------------------------------
 CID_131409264_JID_2386_neutraal
 -------------------------------
 Symbolic Z-matrix:
 Charge =  0 Multiplicity = 1

 SCF Done:  E(RB3LYP) =  -550.944361492     A.U. after   15 cycles
 SCF Done:  E(RB3LYP) =  -550.948618089     A.U. after   13 cycles
 SCF Done:  E(RB3LYP) =  -550.949035816     A.U. after   12 cycles
 SCF Done:  E(RB3LYP) =  -550.949307122     A.U. after   12 cycles
 SCF Done:  E(RB3LYP) =  -550.949452568     A.U. after   11 cycles
 SCF Done:  E(RB3LYP) =  -550.949933905     A.U. after   15 cycles
 SCF Done:  E(RB3LYP) =  -550.950393405     A.U. after   12 cycles
 SCF Done:  E(RB3LYP) =  -550.951600975     A.U. after   13 cycles
 SCF Done:  E(RB3LYP) =  -550.952089008     A.U. after   12 cycles
 SCF Done:  E(RB3LYP) =  -550.952150515     A.U. after   11 cycles
 SCF Done:  E(RB3LYP) =  -550.952096282     A.U. after   12 cycles
 SCF Done:  E(RB3LYP) =  -550.952182604     A.U. after   11 cycles
 SCF Done:  E(RB3LYP) =  -550.952186050     A.U. after    8 cycles
 SCF Done:  E(RB3LYP) =  -550.952186530     A.U. after    8 cycles
 SCF Done:  E(RB3LYP) =  -550.952186659     A.U. after    7 cycles
 Optimization completed.
    -- Stationary point found.
 Normal termination of Gaussian 16 at Wed Dec  9 17:17:42 2020.

 --------------------------------------------------------------------
 #N Geom=AllCheck Guess=TCheck SCRF=Check GenChk RB3LYP/6-31G(d) Freq
 --------------------------------------------------------------------

 Structure from the checkpoint file:  "JID_2386.chk"
 -------------------------------
 CID_131409264_JID_2386_neutraal
 -------------------------------
 Charge =  0 Multiplicity = 1

 SCF Done:  E(RB3LYP) =  -550.952186659     A.U. after    1 cycles

  Exact polarizability: 117.324  -6.484 121.504   0.004  -0.004  64.507
 Approx polarizability: 165.954  -7.946 219.188   0.001  -0.009  92.715

                      1                      2                      3
                      A                      A                      A
 Frequencies --     57.4879                93.3608               136.1089
 Red. masses --      3.5192                 4.9409                 9.2793
 Frc consts  --      0.0069                 0.0254                 0.1013
 IR Inten    --      1.7906                 0.4164                 5.6903

                      4                      5                      6
                      A                      A                      A
 Frequencies --    157.1590               206.3749               224.0783
 Red. masses --      4.4827                 3.9740                 1.0753
 Frc consts  --      0.0652                 0.0997                 0.0318
 IR Inten    --      0.2545                 2.0782                 0.0033

                      7                      8                      9
                      A                      A                      A
 Frequencies --    270.4510               276.6765               290.5774
 Red. masses --      1.0549                 1.1252                 1.4039
 Frc consts  --      0.0455                 0.0507                 0.0698
 IR Inten    --      0.0126               130.3903                 0.0224

                     10                     11                     12
                      A                      A                      A
 Frequencies --    308.9300               310.7345               350.4119
 Red. masses --      2.8765                 2.1004                 3.0875
 Frc consts  --      0.1617                 0.1195                 0.2234
 IR Inten    --      2.4836                 0.0004                 4.1690

                     13                     14                     15
                      A                      A                      A
 Frequencies --    369.6033               392.7787               453.6705
 Red. masses --      2.7304                 3.8807                 4.0929
 Frc consts  --      0.2198                 0.3527                 0.4963
 IR Inten    --      0.7575                 6.3243                 3.9858

                     16                     17                     18
                      A                      A                      A
 Frequencies --    459.3221               518.8015               550.3546
 Red. masses --      4.0194                 7.8422                 3.6046
 Frc consts  --      0.4996                 1.2436                 0.6433
 IR Inten    --      1.6169                 7.0347                10.5814

                     19                     20                     21
                      A                      A                      A
 Frequencies --    602.9063               656.3658               657.9374
 Red. masses --      4.8982                 5.5394                 7.7068
 Frc consts  --      1.0490                 1.4061                 1.9656
 IR Inten    --      0.8592                 0.2734                 1.6724

                     22                     23                     24
                      A                      A                      A
 Frequencies --    704.2973               766.4045               803.0197
 Red. masses --      5.3551                 9.1287                 1.3682
 Frc consts  --      1.5651                 3.1592                 0.5198
 IR Inten    --      0.4573                 3.5574                21.0316

                     25                     26                     27
                      A                      A                      A
 Frequencies --    838.1463               941.2878               952.9934
 Red. masses --      2.8492                 1.7115                 1.6340
 Frc consts  --      1.1793                 0.8934                 0.8744
 IR Inten    --      1.2316                 0.1728                 0.8991

                     28                     29                     30
                      A                      A                      A
 Frequencies --    988.4982              1031.3424              1069.8807
 Red. masses --      1.1980                 3.2385                 1.5890
 Frc consts  --      0.6897                 2.0296                 1.0717
 IR Inten    --      0.0073                51.1907                 5.5284

                     31                     32                     33
                      A                      A                      A
 Frequencies --   1071.8346              1151.5825              1200.9743
 Red. masses --      1.3913                 1.9764                 2.5413
 Frc consts  --      0.9417                 1.5443                 2.1596
 IR Inten    --      0.5484                36.7878                28.5271

                     34                     35                     36
                      A                      A                      A
 Frequencies --   1248.9687              1268.5131              1280.7240
 Red. masses --      2.2232                 2.7489                 2.5489
 Frc consts  --      2.0433                 2.6062                 2.4633
 IR Inten    --     55.2098                10.1397                45.2602

                     37                     38                     39
                      A                      A                      A
 Frequencies --   1310.4646              1346.6623              1392.5475
 Red. masses --      2.2699                 6.2257                 4.9585
 Frc consts  --      2.2967                 6.6521                 5.6653
 IR Inten    --     62.8977                78.5407                62.7046

                     40                     41                     42
                      A                      A                      A
 Frequencies --   1413.2219              1433.5751              1434.9821
 Red. masses --      6.1073                 1.2246                 1.2690
 Frc consts  --      7.1865                 1.4829                 1.5396
 IR Inten    --     36.1771                10.9813                 9.2118

                     43                     44                     45
                      A                      A                      A
 Frequencies --   1464.7517              1505.8303              1513.0104
 Red. masses --      1.2234                 1.0470                 1.0926
 Frc consts  --      1.5464                 1.3987                 1.4736
 IR Inten    --      4.2707                 1.0421                 7.3437

                     46                     47                     48
                      A                      A                      A
 Frequencies --   1517.6143              1526.8662              1534.3593
 Red. masses --      1.0460                 3.6921                 1.0538
 Frc consts  --      1.4194                 5.0714                 1.4617
 IR Inten    --      0.1655                80.4077                 2.2343

                     49                     50                     51
                      A                      A                      A
 Frequencies --   1536.2614              1551.2449              1643.0078
 Red. masses --      1.1539                 1.0611                 6.2488
 Frc consts  --      1.6046                 1.5044                 9.9387
 IR Inten    --     17.9606                 5.6848                73.6893

                     52                     53                     54
                      A                      A                      A
 Frequencies --   2340.8186              3064.7598              3067.2990
 Red. masses --     12.6530                 1.0358                 1.0364
 Frc consts  --     40.8489                 5.7324                 5.7447
 IR Inten    --     62.6475                20.1345                 5.8962

                     55                     56                     57
                      A                      A                      A
 Frequencies --   3076.8175              3133.3088              3135.3576
 Red. masses --      1.0368                 1.1032                 1.1028
 Frc consts  --      5.7831                 6.3813                 6.3871
 IR Inten    --     18.7748                 8.1664                15.3313

                     58                     59                     60
                      A                      A                      A
 Frequencies --   3148.2364              3154.3493              3157.5968
 Red. masses --      1.1014                 1.1022                 1.1014
 Frc consts  --      6.4317                 6.4612                 6.4699
 IR Inten    --     36.4477                 1.3055                17.7367

                     61                     62                     63
                      A                      A                      A
 Frequencies --   3162.2194              3258.3625              3766.3712
 Red. masses --      1.1034                 1.0965                 1.0664
 Frc consts  --      6.5009                 6.8588                 8.9129
 IR Inten    --     16.8964                 5.4524                82.4135

 - Thermochemistry -
 -------------------
 Temperature   298.150 Kelvin.  Pressure   1.00000 Atm.
 Atom     1 has atomic number  6 and mass  12.00000

 Molecular mass:   165.09021 amu.
 Principal axes and moments of inertia in atomic units:
                           1         2         3
     Eigenvalues --  1295.362002144.694293036.77374
           X            0.99959  -0.02871   0.00002
           Y            0.02871   0.99959  -0.00001
           Z           -0.00002   0.00001   1.00000
 This molecule is an asymmetric top.
 Rotational symmetry number  1.
 Warning -- assumption of classical behavior for rotation
           may cause significant error
 Rotational temperatures (Kelvin)      0.06686     0.04039     0.02852
 Rotational constants (GHZ):           1.39323     0.84149     0.59430
 Zero-point vibrational energy     491978.9 (Joules/Mol)
                                  117.58579 (Kcal/Mol)
 Warning -- explicit consideration of  19 degrees of freedom as
           vibrations may cause significant error
 Vibrational temperatures:     82.71   134.33   195.83   226.12   296.93
          (Kelvin)            322.40   389.12   398.08   418.08   444.48
                              447.08   504.16   531.78   565.12   652.73
                              660.86   746.44   791.84   867.45   944.36
                              946.63  1013.33  1102.69  1155.37  1205.91
                             1354.30  1371.14  1422.23  1483.87  1539.32
                             1542.13  1656.87  1727.93  1796.99  1825.11
                             1842.68  1885.47  1937.55  2003.57  2033.31
                             2062.59  2064.62  2107.45  2166.55  2176.88
                             2183.51  2196.82  2207.60  2210.34  2231.90
                             2363.92  3367.92  4409.51  4413.16  4426.85
                             4508.13  4511.08  4529.61  4538.41  4543.08
                             4549.73  4688.06  5418.97

 Zero-point correction=                           0.187385 (Hartree/Particle)
 Thermal correction to Energy=                    0.199394
 Thermal correction to Enthalpy=                  0.200338
 Thermal correction to Gibbs Free Energy=         0.150154
 Sum of electronic and zero-point Energies=           -550.764802
 Sum of electronic and thermal Energies=              -550.752792
 Sum of electronic and thermal Enthalpies=            -550.751848
 Sum of electronic and thermal Free Energies=         -550.802033

                     E (Thermal)             CV                S
                      KCal/Mol        Cal/Mol-Kelvin    Cal/Mol-Kelvin
 Total                  125.122             45.478            105.622
 Electronic               0.000              0.000              0.000
 Translational            0.889              2.981             41.212
 Rotational               0.889              2.981             30.513
 Vibrational            123.344             39.516             33.897
 Vibration     1          0.596              1.975              4.542
 Vibration     2          0.602              1.954              3.588
 Vibration     3          0.614              1.917              2.858
 Vibration     4          0.621              1.895              2.584
 Vibration     5          0.641              1.831              2.076
 Vibration     6          0.649              1.804              1.926
 Vibration     7          0.674              1.728              1.593
 Vibration     8          0.678              1.717              1.554
 Vibration     9          0.687              1.691              1.471
 Vibration    10          0.698              1.657              1.368
 Vibration    11          0.700              1.653              1.358
 Vibration    12          0.727              1.574              1.164
 Vibration    13          0.742              1.535              1.081
 Vibration    14          0.760              1.486              0.990
 Vibration    15          0.812              1.353              0.785
 Vibration    16          0.817              1.340              0.768
 Vibration    17          0.874              1.208              0.613
 Vibration    18          0.906              1.139              0.543
 Vibration    19          0.961              1.026              0.445

                           ! Non-Optimized Parameters !
 Normal termination of Gaussian 16 at Wed Dec  9 17:23:14 2020.

 ----------------------------------------------------------------------
 # B3LYP/6-311++G(d,p) empiricaldispersion=gd3bj scf=xqc pop=npa geom=c
 heck
 ----------------------------------------------------------------------

 ---------------------------------------
 CID_131409264_JID_2386_Energie_neutraal
 ---------------------------------------
 Structure from the checkpoint file:  "JID_2386.chk"
 Charge =  0 Multiplicity = 1

 SCF Done:  E(RB3LYP) =  -551.109995108     A.U. after   15 cycles
 Normal termination of Gaussian 16 at Wed Dec  9 17:25:36 2020.

 ----------------------------------------------------------------------
 # B3LYP/6-311++G(d,p) empiricaldispersion=gd3bj scf=xqc pop=npa geom=c
 heck
 ----------------------------------------------------------------------

 -------------------------------------
 CID_131409264_JID_2386_Energie_kation
 -------------------------------------
 Structure from the checkpoint file:  "JID_2386.chk"
 Charge =  1 Multiplicity = 2

 SCF Done:  E(UB3LYP) =  -550.787561856     A.U. after   25 cycles
 Normal termination of Gaussian 16 at Wed Dec  9 17:31:16 2020.
 Gaussian 16:  ES64L-G16RevA.03 25-Dec-2016

 ----------------------------------------------------------------------
 # B3LYP/6-311++G(d,p) empiricaldispersion=gd3bj scf=xqc pop=npa geom=c
 heck
 ----------------------------------------------------------------------

 ------------------------------------
 CID_131409264_JID_2386_Energie_anion
 ------------------------------------
 Structure from the checkpoint file:  "JID_2386.chk"
 Charge = -1 Multiplicity = 2

                         Standard orientation:
 ---------------------------------------------------------------------
 Center     Atomic      Atomic             Coordinates (Angstroms)
 Number     Number       Type             X           Y           Z
 ---------------------------------------------------------------------
      1          6           0       -2.526879   -1.337232    0.000176
      2          6           0       -1.659093   -0.075286   -0.000038
      3          6           0       -1.933768    0.747212   -1.269538
      4          6           0       -1.933832    0.747646    1.269197
      5          7           0       -0.225139   -0.485900    0.000087
      6          6           0        0.888899    0.334901   -0.000019
      7          6           0        1.995264   -0.516120   -0.000033
      8          6           0        1.457894   -1.814049    0.000060
      9          7           0        0.119925   -1.773287    0.000110
     10          8           0        3.279764   -0.087137   -0.000409
     11          6           0        0.870080    1.745064    0.000095
     12          7           0        0.863989    2.910237    0.000126
     13          1           0       -3.576566   -1.027493    0.000066
     14          1           0       -2.340709   -1.950817    0.884321
     15          1           0       -2.340590   -1.951175   -0.883682
     16          1           0       -2.993057    1.021342   -1.301673
     17          1           0       -1.347533    1.668803   -1.295015
     18          1           0       -1.702045    0.158310   -2.162613
     19          1           0       -1.702162    0.159010    2.162468
     20          1           0       -1.347557    1.669205    1.294425
     21          1           0       -2.993129    1.021746    1.301183
     22          1           0        1.974470   -2.764719    0.000103
     23          1           0        3.867956   -0.857284    0.002022
 ---------------------------------------------------------------------

 SCF Done:  E(UB3LYP) =  -551.103040254     A.U. after   33 cycles
 SCF Done:  E(UB3LYP) =  -551.103040254     a.u. after    1 cycles

 The electronic state is 2-A.
 Alpha  occ. eigenvalues --  -19.04750 -14.28382 -14.22735 -14.19961 -10.13780
 Alpha  occ. eigenvalues --  -10.12922 -10.11624 -10.10278 -10.08121 -10.07183
 Alpha  occ. eigenvalues --  -10.06983 -10.06858  -0.96473  -0.94642  -0.79801
 Alpha  occ. eigenvalues --   -0.76251  -0.70228  -0.66439  -0.60468  -0.60061
 Alpha  occ. eigenvalues --   -0.54109  -0.51865  -0.50474  -0.42598  -0.42031
 Alpha  occ. eigenvalues --   -0.37765  -0.37321  -0.35353  -0.34023  -0.33154
 Alpha  occ. eigenvalues --   -0.30380  -0.29818  -0.28710  -0.28380  -0.28084
 Alpha  occ. eigenvalues --   -0.27408  -0.26118  -0.25441  -0.25219  -0.24841
 Alpha  occ. eigenvalues --   -0.22862  -0.18685  -0.14854  -0.12191   0.04478
 Alpha virt. eigenvalues --    0.06148   0.06662   0.08642   0.08939   0.09379
 Alpha virt. eigenvalues --    0.10058   0.11422   0.11492   0.12630   0.12893
 Alpha virt. eigenvalues --    0.12916   0.13813   0.13911   0.15779   0.16141

  Beta  occ. eigenvalues --  -19.04669 -14.28251 -14.22578 -14.19855 -10.13785
  Beta  occ. eigenvalues --  -10.12876 -10.11589 -10.10255 -10.08122 -10.07171
  Beta  occ. eigenvalues --  -10.06956 -10.06844  -0.96292  -0.94431  -0.79637
  Beta  occ. eigenvalues --   -0.76151  -0.70053  -0.66323  -0.60427  -0.60025
  Beta  occ. eigenvalues --   -0.53870  -0.51764  -0.50341  -0.42513  -0.41911
  Beta  occ. eigenvalues --   -0.37482  -0.37270  -0.35309  -0.33862  -0.33084
  Beta  occ. eigenvalues --   -0.30309  -0.29774  -0.28626  -0.28280  -0.28051
  Beta  occ. eigenvalues --   -0.27167  -0.25989  -0.25366  -0.25001  -0.24474
  Beta  occ. eigenvalues --   -0.22782  -0.18491  -0.14356  -0.11742
  Beta virt. eigenvalues --    0.06568   0.07830   0.08368   0.08902   0.08990
  Beta virt. eigenvalues --    0.09758   0.10904   0.11422   0.11552   0.12639
  Beta virt. eigenvalues --    0.12849   0.13214   0.13880   0.14188   0.15586

 Mulliken charges and spin densities:
               1          2
     1  C    0.012146  -0.512179
     2  C   -1.278505   0.989388
     3  C   -0.026095  -0.396557
     4  C    0.225579  -0.648460
     5  N    0.078508   0.371273
     6  C    2.582106  -2.171542
     7  C   -1.244851   1.800914
     8  C   -0.109077   0.014010
     9  N    0.239327  -0.176095
    10  O   -0.299692   0.022410
    11  C    0.797400  -1.930847
    12  N   -0.287221   0.060055
    13  H   -0.075259   0.204889
    14  H    0.105794   0.071325
    15  H    0.047263   0.130631
    16  H   -0.006207   0.146378
    17  H    0.111638   0.045271
    18  H    0.099334   0.061123
    19  H    0.083664   0.076876
    20  H    0.042878   0.114573
    21  H   -0.180234   0.325666
    22  H   -1.206701   1.378346
    23  H   -0.711798   1.022549
 Sum of Mulliken charges =  -1.00000   1.00000

 Dipole moment (field-independent basis, Debye):
    X=             -7.2521    Y=              1.0445    Z=             -0.7021  Tot=              7.3605
 Quadrupole moment (field-independent basis, Debye-Ang):
   XX=           -139.1039   YY=           -120.4991   ZZ=            -89.6910
   XY=             10.9484   XZ=              0.9836   YZ=             -0.6928

 Summary of Natural Population Analysis:

                                       Natural Population
                Natural  -----------------------------------------------
    Atom  No    Charge         Core      Valence    Rydberg      Total
 -----------------------------------------------------------------------
      C    1   -0.28699      0.99962     2.28108    0.00629     3.28699
      C    2    0.06787      0.99959     1.92011    0.01243     2.93213
      C    3   -0.28949      0.99961     2.28436    0.00552     3.28949
      C    4   -0.29118      0.99961     2.28469    0.00688     3.29118
      N    5   -0.08288      0.99962     2.56781    0.01545     3.58288
      C    6   -0.02868      0.99938     2.01805    0.01125     3.02868
      C    7    0.14956      0.99934     1.83608    0.01502     2.85044
      C    8   -0.05758      0.99957     2.04332    0.01470     3.05758
      N    9   -0.11271      0.99973     2.60073    0.01225     3.61271
      O   10   -0.33179      0.99987     3.32465    0.00727     4.33179
      C   11    0.14294      0.99964     1.84153    0.01589     2.85706
      N   12   -0.17271      0.99979     2.66254    0.01038     3.67271
      H   13    0.09868      0.00000     0.40037    0.00095     0.40132
      H   14    0.10852      0.00000     0.39033    0.00115     0.39148
      H   15    0.10870      0.00000     0.39016    0.00114     0.39130
      H   16    0.09977      0.00000     0.39940    0.00082     0.40023
      H   17    0.11014      0.00000     0.38901    0.00085     0.38986
      H   18    0.10319      0.00000     0.39596    0.00085     0.39681
      H   19    0.10334      0.00000     0.39582    0.00084     0.39666
      H   20    0.11011      0.00000     0.38899    0.00090     0.38989
      H   21    0.10115      0.00000     0.39790    0.00095     0.39885
      H   22    0.10395      0.00000     0.39353    0.00253     0.39605
      H   23    0.24609      0.00000     0.22244    0.03147     0.25391
 =======================================================================
   * Total *   -0.00000     11.99535    31.82887    0.17578    44.00000

 Normal termination of Gaussian 16 at Wed Dec  9 17:39:02 2020.
