 Gaussian 16, Revision A.03,

 -----------------------------------------------------------
 # opt freq B3LYP/6-31G(d) empiricaldispersion=gd3bj scf=xqc
 -----------------------------------------------------------

 -------------------------------
 CID_130122282_JID_1096_neutraal
 -------------------------------
 Symbolic Z-matrix:
 Charge =  0 Multiplicity = 1

 SCF Done:  E(RB3LYP) =  -538.987913264     A.U. after   14 cycles
 SCF Done:  E(RB3LYP) =  -538.994978473     A.U. after   12 cycles
 SCF Done:  E(RB3LYP) =  -538.995879697     A.U. after   13 cycles
 SCF Done:  E(RB3LYP) =  -538.996465455     A.U. after   11 cycles
 SCF Done:  E(RB3LYP) =  -538.996515283     A.U. after   12 cycles
 SCF Done:  E(RB3LYP) =  -538.996662246     A.U. after   11 cycles
 SCF Done:  E(RB3LYP) =  -538.996672259     A.U. after   10 cycles
 SCF Done:  E(RB3LYP) =  -538.996678787     A.U. after    9 cycles
 SCF Done:  E(RB3LYP) =  -538.996680455     A.U. after    8 cycles
 SCF Done:  E(RB3LYP) =  -538.996680745     A.U. after    8 cycles
 SCF Done:  E(RB3LYP) =  -538.996680798     A.U. after    7 cycles
 Optimization completed.
    -- Stationary point found.

 1\1\GINC-NODE121\FOpt\RB3LYP\6-31G(d)\C8H14O3\VSC10255\08-Dec-2020\0\\
 # opt freq B3LYP/6-31G(d) empiricaldispersion=gd3bj scf=xqc\\CID_13012
 2282_JID_1096_neutraal\\0,1\C,0.7002945852,0.0545312039,0.0592991847\C
 ,0.3905891712,-0.7513102101,-1.2087106375\C,1.1136567465,-2.1044346857
 ,-1.1691321614\C,-1.1113004636,-0.9910277837,-1.4571128849\C,-1.995346
 3782,0.2463870753,-1.6083231648\C,-2.5273974702,0.8904078409,-0.307985
 5125\C,-2.6991979379,2.3532075505,-0.7258124114\C,-1.6660285891,2.5338
 708365,-1.8310889612\O,-1.2137288289,3.5547080397,-2.2747938572\O,-1.2

 Normal termination of Gaussian 16 at Tue Dec  8 19:13:02 2020.

 --------------------------------------------------------------------
 #N Geom=AllCheck Guess=TCheck SCRF=Check GenChk RB3LYP/6-31G(d) Freq
 --------------------------------------------------------------------

 Structure from the checkpoint file:  "JID_1096.chk"
 -------------------------------
 CID_130122282_JID_1096_neutraal
 -------------------------------
 Charge =  0 Multiplicity = 1

 SCF Done:  E(RB3LYP) =  -538.996680798     A.U. after    1 cycles

  Exact polarizability: 101.166  -2.554  88.593   2.561  -4.248  77.947
 Approx polarizability: 124.880  -8.424 134.540   3.377  -4.806 114.718

                      1                      2                      3
                      A                      A                      A
 Frequencies --     57.6981                69.8422                97.6165
 Red. masses --      4.0267                 3.0636                 2.9191
 Frc consts  --      0.0079                 0.0088                 0.0164
 IR Inten    --      0.3298                 0.9646                 6.2465

                      4                      5                      6
                      A                      A                      A
 Frequencies --    115.1310               198.6885               236.9322
 Red. masses --      4.7016                 4.5654                 2.9168
 Frc consts  --      0.0367                 0.1062                 0.0965
 IR Inten    --      2.1508                 0.5159                 0.2330

                      7                      8                      9
                      A                      A                      A
 Frequencies --    241.4426               293.6972               302.7138
 Red. masses --      1.0987                 1.3533                 2.0453
 Frc consts  --      0.0377                 0.0688                 0.1104
 IR Inten    --      0.0758                 2.1631                 0.6497

                     10                     11                     12
                      A                      A                      A
 Frequencies --    312.9610               373.5595               379.8221
 Red. masses --      1.4461                 1.9418                 2.6171
 Frc consts  --      0.0835                 0.1597                 0.2224
 IR Inten    --     28.7865                60.4739                24.0237

                     13                     14                     15
                      A                      A                      A
 Frequencies --    418.9017               425.3958               518.0543
 Red. masses --      1.9387                 2.5568                 3.0270
 Frc consts  --      0.2004                 0.2726                 0.4786
 IR Inten    --      1.3996                 4.3186                 6.5623

                     16                     17                     18
                      A                      A                      A
 Frequencies --    538.0856               604.8744               626.6005
 Red. masses --      4.1863                 4.3753                 4.7414
 Frc consts  --      0.7141                 0.9432                 1.0968
 IR Inten    --      1.3377                 1.0851                 2.3040

                     19                     20                     21
                      A                      A                      A
 Frequencies --    711.3084               781.6015               850.7291
 Red. masses --      4.9594                 2.9567                 2.3245
 Frc consts  --      1.4784                 1.0642                 0.9912
 IR Inten    --      6.6592                 1.5144                 3.9197

                     22                     23                     24
                      A                      A                      A
 Frequencies --    873.0284               908.3681               944.3631
 Red. masses --      2.8794                 1.6920                 1.2794
 Frc consts  --      1.2931                 0.8226                 0.6723
 IR Inten    --     11.1518                 5.9342                 2.0007

                     25                     26                     27
                      A                      A                      A
 Frequencies --    951.2007               981.3421              1009.1300
 Red. masses --      1.8673                 1.5076                 2.8470
 Frc consts  --      0.9954                 0.8554                 1.7082
 IR Inten    --      4.7722                 1.5872                64.2316

                     28                     29                     30
                      A                      A                      A
 Frequencies --   1020.8867              1070.2122              1121.8450
 Red. masses --      2.2480                 3.1164                 2.4118
 Frc consts  --      1.3804                 2.1030                 1.7883
 IR Inten    --     19.6696                 3.5564                59.6117

                     31                     32                     33
                      A                      A                      A
 Frequencies --   1128.4771              1144.6159              1165.5257
 Red. masses --      2.3936                 2.2389                 1.6588
 Frc consts  --      1.7959                 1.7283                 1.3277
 IR Inten    --    111.0813                60.9916                18.8508

                     34                     35                     36
                      A                      A                      A
 Frequencies --   1185.1100              1196.5679              1206.5788
 Red. masses --      2.0119                 2.2221                 1.7552
 Frc consts  --      1.6648                 1.8746                 1.5056
 IR Inten    --      8.0968               155.8455                 9.4116

                     37                     38                     39
                      A                      A                      A
 Frequencies --   1257.1500              1283.1323              1312.4218
 Red. masses --      1.5301                 1.3916                 1.6317
 Frc consts  --      1.4248                 1.3500                 1.6560
 IR Inten    --     42.8934                10.8186                40.4789

                     40                     41                     42
                      A                      A                      A
 Frequencies --   1344.3375              1352.3055              1373.8358
 Red. masses --      1.3149                 1.2612                 1.4419
 Frc consts  --      1.4001                 1.3589                 1.6034
 IR Inten    --      3.3591                 3.9849                 7.9586

                     43                     44                     45
                      A                      A                      A
 Frequencies --   1401.8733              1409.4312              1423.7337
 Red. masses --      1.3760                 1.4902                 1.4090
 Frc consts  --      1.5933                 1.7441                 1.6827
 IR Inten    --      1.6246                15.8516                 3.8495

                     46                     47                     48
                      A                      A                      A
 Frequencies --   1431.9554              1451.7951              1456.3147
 Red. masses --      1.2928                 1.2389                 1.2316
 Frc consts  --      1.5619                 1.5385                 1.5389
 IR Inten    --      3.9891                 9.0461                44.9149

                     49                     50                     51
                      A                      A                      A
 Frequencies --   1490.6385              1512.5503              1523.1360
 Red. masses --      1.1046                 1.0746                 1.0513
 Frc consts  --      1.4461                 1.4486                 1.4369
 IR Inten    --     11.9245                 0.4163                 1.5220

                     52                     53                     54
                      A                      A                      A
 Frequencies --   1527.2606              1536.3981              1547.8869
 Red. masses --      1.0562                 1.0572                 1.0469
 Frc consts  --      1.4515                 1.4703                 1.4779
 IR Inten    --      4.0898                 2.8691                14.3234

                     55                     56                     57
                      A                      A                      A
 Frequencies --   1892.8946              2995.3277              3036.5089
 Red. masses --     12.7328                 1.0839                 1.0535
 Frc consts  --     26.8799                 5.7297                 5.7229
 IR Inten    --    386.4925                46.1821                10.7851

                     58                     59                     60
                      A                      A                      A
 Frequencies --   3038.8952              3042.8811              3045.2471
 Red. masses --      1.0438                 1.0464                 1.0714
 Frc consts  --      5.6795                 5.7085                 5.8537
 IR Inten    --     43.1906                14.1247                 7.8341

                     61                     62                     63
                      A                      A                      A
 Frequencies --   3058.2579              3079.6459              3102.0733
 Red. masses --      1.0779                 1.1011                 1.1005
 Frc consts  --      5.9401                 6.1529                 6.2395
 IR Inten    --     11.3063                18.5513                10.5290

                     64                     65                     66
                      A                      A                      A
 Frequencies --   3108.5612              3115.5274              3124.5769
 Red. masses --      1.1005                 1.1019                 1.0993
 Frc consts  --      6.2656                 6.3015                 6.3233
 IR Inten    --     57.1711                46.9927                49.5613

                     67                     68                     69
                      A                      A                      A
 Frequencies --   3142.4350              3155.4559              3716.3519
 Red. masses --      1.0873                 1.0926                 1.0657
 Frc consts  --      6.3261                 6.4095                 8.6721
 IR Inten    --      2.4722                 9.3831                 8.6798

 - Thermochemistry -
 -------------------
 Temperature   298.150 Kelvin.  Pressure   1.00000 Atm.
 Atom     1 has atomic number  6 and mass  12.00000

 Molecular mass:   158.09429 amu.
 Principal axes and moments of inertia in atomic units:
                           1         2         3
     Eigenvalues --  1185.773362340.038672941.70254
           X            0.99938   0.03507  -0.00158
           Y           -0.03510   0.99885  -0.03278
           Z            0.00043   0.03281   0.99946
 This molecule is an asymmetric top.
 Rotational symmetry number  1.
 Warning -- assumption of classical behavior for rotation
           may cause significant error
 Rotational temperatures (Kelvin)      0.07304     0.03701     0.02944
 Rotational constants (GHZ):           1.52200     0.77124     0.61350
 Zero-point vibrational energy     570341.8 (Joules/Mol)
                                  136.31496 (Kcal/Mol)
 Warning -- explicit consideration of  17 degrees of freedom as
           vibrations may cause significant error
 Vibrational temperatures:     83.01   100.49   140.45   165.65   285.87
          (Kelvin)            340.89   347.38   422.56   435.54   450.28
                              537.47   546.48   602.71   612.05   745.36
                              774.19   870.28   901.54  1023.41  1124.55
                             1224.01  1256.09  1306.94  1358.73  1368.57
                             1411.93  1451.91  1468.83  1539.80  1614.08
                             1623.63  1646.85  1676.93  1705.11  1721.59
                             1736.00  1808.76  1846.14  1888.28  1934.20
                             1945.67  1976.64  2016.98  2027.86  2048.44
                             2060.26  2088.81  2095.31  2144.70  2176.22
                             2191.45  2197.39  2210.53  2227.06  2723.45
                             4309.61  4368.86  4372.29  4378.03  4381.43
                             4400.15  4430.92  4463.19  4472.53  4482.55
                             4495.57  4521.26  4540.00  5347.00

 Zero-point correction=                           0.217232 (Hartree/Particle)
 Thermal correction to Energy=                    0.228755
 Thermal correction to Enthalpy=                  0.229699
 Thermal correction to Gibbs Free Energy=         0.179803
 Sum of electronic and zero-point Energies=           -538.779449
 Sum of electronic and thermal Energies=              -538.767926
 Sum of electronic and thermal Enthalpies=            -538.766982
 Sum of electronic and thermal Free Energies=         -538.816877

                     E (Thermal)             CV                S
                      KCal/Mol        Cal/Mol-Kelvin    Cal/Mol-Kelvin
 Total                  143.546             43.306            105.014
 Electronic               0.000              0.000              0.000
 Translational            0.889              2.981             41.083
 Rotational               0.889              2.981             30.480
 Vibrational            141.768             37.344             33.451
 Vibration     1          0.596              1.974              4.534
 Vibration     2          0.598              1.968              4.158
 Vibration     3          0.603              1.951              3.501
 Vibration     4          0.608              1.937              3.181
 Vibration     5          0.637              1.842              2.145
 Vibration     6          0.656              1.784              1.826
 Vibration     7          0.658              1.777              1.792
 Vibration     8          0.688              1.685              1.453
 Vibration     9          0.694              1.669              1.402
 Vibration    10          0.701              1.649              1.347
 Vibration    11          0.745              1.526              1.065
 Vibration    12          0.750              1.513              1.040
 Vibration    13          0.782              1.429              0.896
 Vibration    14          0.787              1.415              0.874
 Vibration    15          0.873              1.210              0.614
 Vibration    16          0.893              1.166              0.569
 Vibration    17          0.963              1.021              0.441

                           ! Non-Optimized Parameters !

 1\1\GINC-NODE121\Freq\RB3LYP\6-31G(d)\C8H14O3\VSC10255\08-Dec-2020\0\\
 #N Geom=AllCheck Guess=TCheck SCRF=Check GenChk RB3LYP/6-31G(d) Freq\\
 CID_130122282_JID_1096_neutraal\\0,1\C,0.7002945852,0.0545312039,0.059
 2991847\C,0.3905891712,-0.7513102101,-1.2087106375\C,1.1136567465,-2.1
 044346857,-1.1691321614\C,-1.1113004636,-0.9910277837,-1.4571128849\C,
 -1.9953463782,0.2463870753,-1.6083231648\C,-2.5273974702,0.8904078409,
 -0.3079855125\C,-2.6991979379,2.3532075505,-0.7258124114\C,-1.66602858
 91,2.5338708365,-1.8310889612\O,-1.2137288289,3.5547080397,-2.27479385

 Normal termination of Gaussian 16 at Tue Dec  8 19:18:20 2020.

 ----------------------------------------------------------------------
 # B3LYP/6-311++G(d,p) empiricaldispersion=gd3bj scf=xqc pop=npa geom=c
 heck
 ----------------------------------------------------------------------

 ---------------------------------------
 CID_130122282_JID_1096_Energie_neutraal
 ---------------------------------------
 Structure from the checkpoint file:  "JID_1096.chk"
 Charge =  0 Multiplicity = 1

 SCF Done:  E(RB3LYP) =  -539.163975193     A.U. after   14 cycles
 Normal termination of Gaussian 16 at Tue Dec  8 19:20:36 2020.

 ----------------------------------------------------------------------
 # B3LYP/6-311++G(d,p) empiricaldispersion=gd3bj scf=xqc pop=npa geom=c
 heck
 ----------------------------------------------------------------------

 -------------------------------------
 CID_130122282_JID_1096_Energie_kation
 -------------------------------------
 Structure from the checkpoint file:  "JID_1096.chk"
 Charge =  1 Multiplicity = 2

 SCF Done:  E(UB3LYP) =  -538.805860634     A.U. after   27 cycles
 Normal termination of Gaussian 16 at Tue Dec  8 19:26:42 2020.
 Gaussian 16:  ES64L-G16RevA.03 25-Dec-2016

 ------------------------------------
 CID_130122282_JID_1096_Energie_anion
 ------------------------------------
 Structure from the checkpoint file:  "JID_1096.chk"
 Charge = -1 Multiplicity = 2

                         Standard orientation:
 ---------------------------------------------------------------------
 Center     Atomic      Atomic             Coordinates (Angstroms)
 Number     Number       Type             X           Y           Z
 ---------------------------------------------------------------------
      1          6           0       -1.730417   -0.523629    1.471931
      2          6           0       -2.068970   -0.460373   -0.022903
      3          6           0       -3.570683   -0.211362   -0.218322
      4          6           0       -1.276765    0.602726   -0.808442
      5          6           0        0.246309    0.476968   -0.803067
      6          6           0        0.996850    1.104417    0.393476
      7          6           0        2.254409    0.234644    0.470407
      8          6           0        1.803082   -1.099967   -0.109966
      9          8           0        2.324654   -2.177333   -0.006034
     10          8           0        0.652201   -0.912248   -0.822922
     11          8           0        1.192728    2.496516    0.251617
     12          1           0       -1.855968    0.455686    1.951938
     13          1           0       -0.706307   -0.866503    1.646916
     14          1           0       -2.396486   -1.228372    1.982361
     15          1           0       -1.822831   -1.435550   -0.460518
     16          1           0       -3.868121    0.752445    0.214748
     17          1           0       -3.840776   -0.197877   -1.280613
     18          1           0       -4.163604   -0.992808    0.269839
     19          1           0       -1.624094    0.573730   -1.848119
     20          1           0       -1.513418    1.608601   -0.433169
     21          1           0        0.647541    0.944387   -1.716192
     22          1           0        0.408427    0.999072    1.305893
     23          1           0        2.678533    0.107752    1.467781
     24          1           0        3.043272    0.639857   -0.179545
     25          1           0        1.734282    2.643559   -0.541293
 ---------------------------------------------------------------------

 SCF Done:  E(UB3LYP) =  -539.153584640     A.U. after   32 cycles

 The electronic state is 2-A.
 Alpha  occ. eigenvalues --  -19.06491 -19.02601 -19.01420 -10.20446 -10.13299
 Alpha  occ. eigenvalues --  -10.13129 -10.08759 -10.07964 -10.07091 -10.06552
 Alpha  occ. eigenvalues --  -10.06312  -1.00650  -0.93591  -0.92664  -0.72016
 Alpha  occ. eigenvalues --   -0.69169  -0.65212  -0.59295  -0.56320  -0.52655
 Alpha  occ. eigenvalues --   -0.48514  -0.45980  -0.42185  -0.40691  -0.38423
 Alpha  occ. eigenvalues --   -0.36787  -0.34959  -0.34853  -0.33596  -0.32994
 Alpha  occ. eigenvalues --   -0.31112  -0.29957  -0.29067  -0.28539  -0.27362
 Alpha  occ. eigenvalues --   -0.26865  -0.24499  -0.23791  -0.23389  -0.22863
 Alpha  occ. eigenvalues --   -0.20132  -0.18996  -0.16822   0.04558
 Alpha virt. eigenvalues --    0.06411   0.07785   0.08706   0.09095   0.09335
 Alpha virt. eigenvalues --    0.09612   0.10825   0.11497   0.11901   0.12118
 Alpha virt. eigenvalues --    0.12470   0.13910   0.14654   0.15166   0.15984

  Beta  occ. eigenvalues --  -19.06482 -19.02534 -19.01417 -10.20441 -10.13294
  Beta  occ. eigenvalues --  -10.13093 -10.08719 -10.07961 -10.07072 -10.06536
  Beta  occ. eigenvalues --  -10.06285  -1.00632  -0.93531  -0.92587  -0.71985
  Beta  occ. eigenvalues --   -0.69110  -0.65160  -0.59251  -0.56245  -0.52561
  Beta  occ. eigenvalues --   -0.48468  -0.45925  -0.42094  -0.40619  -0.38384
  Beta  occ. eigenvalues --   -0.36743  -0.34894  -0.34819  -0.33539  -0.32948
  Beta  occ. eigenvalues --   -0.31070  -0.29921  -0.29035  -0.28507  -0.27307
  Beta  occ. eigenvalues --   -0.26828  -0.24443  -0.23751  -0.23344  -0.22834
  Beta  occ. eigenvalues --   -0.20080  -0.18957  -0.16784
  Beta virt. eigenvalues --    0.06720   0.08025   0.08448   0.09103   0.09386
  Beta virt. eigenvalues --    0.09897   0.10197   0.11262   0.11631   0.12293
  Beta virt. eigenvalues --    0.12713   0.12897   0.14144   0.14845   0.15637

 Mulliken charges and spin densities:
               1          2
     1  C    0.192773  -0.802132
     2  C   -1.536060   1.858962
     3  C    0.691556  -1.342534
     4  C    1.056425  -1.340599
     5  C   -0.754409   0.706441
     6  C    1.399831  -1.953778
     7  C   -0.238912   0.006647
     8  C    0.717530  -0.638051
     9  O   -0.340447   0.029048
    10  O   -0.003235  -0.030447
    11  O   -0.211737   0.018183
    12  H   -0.136998   0.292574
    13  H    0.157940   0.006459
    14  H   -0.011887   0.146471
    15  H    0.092376   0.096587
    16  H   -0.017480   0.152728
    17  H   -0.216690   0.351349
    18  H   -0.197833   0.327859
    19  H   -0.046227   0.216715
    20  H   -0.096339   0.256595
    21  H   -1.046713   1.312212
    22  H    0.297530  -0.101564
    23  H   -0.106427   0.295940
    24  H   -0.360572   0.579202
    25  H   -0.283995   0.555133
 Sum of Mulliken charges =  -1.00000   1.00000

 Dipole moment (field-independent basis, Debye):
    X=             -2.3037    Y=             -2.8549    Z=              3.8486  Tot=              5.3169
 Quadrupole moment (field-independent basis, Debye-Ang):
   XX=           -125.3358   YY=           -115.4905   ZZ=           -101.0603
   XY=             -4.1670   XZ=              5.2109   YZ=              6.5578

 Summary of Natural Population Analysis:

                                       Natural Population
                Natural  -----------------------------------------------
    Atom  No    Charge         Core      Valence    Rydberg      Total
 -----------------------------------------------------------------------
      C    1   -0.28587      0.99964     2.28121    0.00502     3.28587
      C    2   -0.11674      0.99961     2.10695    0.01019     3.11674
      C    3   -0.28003      0.99965     2.27562    0.00475     3.28003
      C    4   -0.19862      0.99959     2.18821    0.01082     3.19862
      C    5    0.05653      0.99953     1.92684    0.01710     2.94347
      C    6    0.05454      0.99952     1.93146    0.01448     2.94546
      C    7   -0.25636      0.99957     2.24815    0.00864     3.25636
      C    8    0.41038      0.99970     1.56358    0.02634     2.58962
      O    9   -0.29431      0.99986     3.28831    0.00613     4.29431
      O   10   -0.28018      0.99986     3.27237    0.00795     4.28018
      O   11   -0.36571      0.99989     3.35916    0.00665     4.36571
      H   12    0.09602      0.00000     0.40287    0.00111     0.40398
      H   13    0.09839      0.00000     0.40033    0.00128     0.40161
      H   14    0.09882      0.00000     0.40031    0.00086     0.40118
      H   15    0.09897      0.00000     0.39885    0.00218     0.40103
      H   16    0.09578      0.00000     0.40313    0.00109     0.40422
      H   17    0.10010      0.00000     0.39872    0.00118     0.39990
      H   18    0.09703      0.00000     0.40197    0.00100     0.40297
      H   19    0.10423      0.00000     0.39445    0.00132     0.39577
      H   20    0.10611      0.00000     0.39249    0.00141     0.39389
      H   21    0.09497      0.00000     0.40011    0.00492     0.40503
      H   22    0.09299      0.00000     0.40491    0.00210     0.40701
      H   23    0.11403      0.00000     0.38513    0.00084     0.38597
      H   24    0.12229      0.00000     0.37482    0.00289     0.37771
      H   25    0.23665      0.00000     0.24575    0.01760     0.26335
 =======================================================================
   * Total *    0.00000     10.99643    31.84573    0.15785    43.00000

 Normal termination of Gaussian 16 at Tue Dec  8 19:33:59 2020.
