 Gaussian 16, Revision A.03,

 -----------------------------------------------------------
 # opt freq B3LYP/6-31G(d) empiricaldispersion=gd3bj scf=xqc
 -----------------------------------------------------------

 -------------------------------
 CID_103275503_JID_9210_neutraal
 -------------------------------
 Symbolic Z-matrix:
 Charge =  0 Multiplicity = 1

 SCF Done:  E(RB3LYP) =  -806.489629557     A.U. after   14 cycles
 SCF Done:  E(RB3LYP) =  -806.510651037     A.U. after   12 cycles
 SCF Done:  E(RB3LYP) =  -806.514715310     A.U. after   12 cycles
 SCF Done:  E(RB3LYP) =  -806.515497237     A.U. after   12 cycles
 SCF Done:  E(RB3LYP) =  -806.515678660     A.U. after   11 cycles
 SCF Done:  E(RB3LYP) =  -806.515746963     A.U. after   11 cycles
 SCF Done:  E(RB3LYP) =  -806.515794106     A.U. after   11 cycles
 SCF Done:  E(RB3LYP) =  -806.515817186     A.U. after   10 cycles
 SCF Done:  E(RB3LYP) =  -806.515828260     A.U. after   10 cycles
 SCF Done:  E(RB3LYP) =  -806.515836591     A.U. after   10 cycles
 SCF Done:  E(RB3LYP) =  -806.515837717     A.U. after    7 cycles
 SCF Done:  E(RB3LYP) =  -806.515837754     A.U. after    6 cycles
 SCF Done:  E(RB3LYP) =  -806.515837789     A.U. after    6 cycles
 SCF Done:  E(RB3LYP) =  -806.515837820     A.U. after    6 cycles
 SCF Done:  E(RB3LYP) =  -806.515837843     A.U. after    6 cycles
 Optimization completed.
    -- Stationary point found.
 Normal termination of Gaussian 16 at Mon Dec 14 13:29:52 2020.

 --------------------------------------------------------------------
 #N Geom=AllCheck Guess=TCheck SCRF=Check GenChk RB3LYP/6-31G(d) Freq
 --------------------------------------------------------------------

 Structure from the checkpoint file:  "JID_9210.chk"
 -------------------------------
 CID_103275503_JID_9210_neutraal
 -------------------------------
 Charge =  0 Multiplicity = 1

 SCF Done:  E(RB3LYP) =  -806.515837843     A.U. after    1 cycles

  Exact polarizability: 198.892 -19.157 155.403   0.160   0.710 168.198
 Approx polarizability: 252.797 -33.270 225.438   2.313   1.400 298.302

 ******    1 imaginary frequencies (negative Signs) ******

                      1                      2                      3
                      A                      A                      A
 Frequencies --    -30.5748                17.7160                21.6562
 Red. masses --      1.0262                 3.9995                 4.1948
 Frc consts  --      0.0006                 0.0007                 0.0012
 IR Inten    --      0.1566                 0.0638                 0.1195

                      4                      5                      6
                      A                      A                      A
 Frequencies --     31.1777                41.1670                58.9996
 Red. masses --      4.6271                 3.9490                 4.1771
 Frc consts  --      0.0027                 0.0039                 0.0086
 IR Inten    --      0.9726                 0.6098                 0.2737

                      7                      8                      9
                      A                      A                      A
 Frequencies --    123.6465               136.7060               153.1309
 Red. masses --      2.7921                 1.5498                 2.1124
 Frc consts  --      0.0251                 0.0171                 0.0292
 IR Inten    --      0.1512                 0.0615                 0.0143

                     10                     11                     12
                      A                      A                      A
 Frequencies --    179.0461               210.6445               213.8234
 Red. masses --      3.8207                 3.3188                 3.0181
 Frc consts  --      0.0722                 0.0868                 0.0813
 IR Inten    --      0.8558                 2.0883                 0.7987

                     13                     14                     15
                      A                      A                      A
 Frequencies --    227.3518               265.2354               287.3657
 Red. masses --      3.7444                 2.8864                 2.8530
 Frc consts  --      0.1140                 0.1196                 0.1388
 IR Inten    --      2.0335                 1.2076                 2.1798

                     16                     17                     18
                      A                      A                      A
 Frequencies --    320.1180               349.9115               379.8125
 Red. masses --      3.1605                 3.7289                 3.2909
 Frc consts  --      0.1908                 0.2690                 0.2797
 IR Inten    --      2.4791                 1.6452                 1.2147

                     19                     20                     21
                      A                      A                      A
 Frequencies --    398.4473               451.0153               455.1864
 Red. masses --      2.3543                 2.6813                 2.3454
 Frc consts  --      0.2202                 0.3214                 0.2863
 IR Inten    --      0.3445                 1.7773                 5.6125

                     22                     23                     24
                      A                      A                      A
 Frequencies --    509.5211               529.3762               563.9165
 Red. masses --      3.6326                 4.5242                 2.3714
 Frc consts  --      0.5556                 0.7470                 0.4443
 IR Inten    --      2.2008                 0.8691                 1.3264

                     25                     26                     27
                      A                      A                      A
 Frequencies --    588.6535               627.7518               642.2285
 Red. masses --      3.6006                 4.2186                 4.1112
 Frc consts  --      0.7351                 0.9795                 0.9991
 IR Inten    --      1.4484                 5.4813                 1.6830

                     28                     29                     30
                      A                      A                      A
 Frequencies --    656.7728               709.1396               718.4891
 Red. masses --      4.5864                 5.1804                 2.1988
 Frc consts  --      1.1656                 1.5349                 0.6688
 IR Inten    --     11.5624                 3.4772                11.4436

                     31                     32                     33
                      A                      A                      A
 Frequencies --    733.8946               772.8006               798.3485
 Red. masses --      3.6465                 2.5318                 1.4398
 Frc consts  --      1.1572                 0.8909                 0.5407
 IR Inten    --     15.1869                14.5150                12.2136

                     34                     35                     36
                      A                      A                      A
 Frequencies --    819.9202               828.6221               843.3169
 Red. masses --      1.2887                 3.5461                 1.3081
 Frc consts  --      0.5104                 1.4345                 0.5481
 IR Inten    --     22.8193                24.2005                13.4583

                     37                     38                     39
                      A                      A                      A
 Frequencies --    852.6415               900.1208               906.9894
 Red. masses --      2.2744                 1.3187                 1.5170
 Frc consts  --      0.9742                 0.6295                 0.7353
 IR Inten    --     76.5240                 1.2121                 0.1970

                     40                     41                     42
                      A                      A                      A
 Frequencies --    923.8879               932.4703               955.2425
 Red. masses --      2.7427                 2.0943                 2.0606
 Frc consts  --      1.3793                 1.0729                 1.1078
 IR Inten    --      3.6148                13.2878                 1.7172

                     43                     44                     45
                      A                      A                      A
 Frequencies --    972.8752               979.4795               991.8537
 Red. masses --      1.2908                 2.8338                 3.3001
 Frc consts  --      0.7198                 1.6018                 1.9128
 IR Inten    --      0.6740                 1.8566                16.3695

                     46                     47                     48
                      A                      A                      A
 Frequencies --   1004.9233              1021.2040              1035.1812
 Red. masses --      2.1490                 4.3126                 1.7589
 Frc consts  --      1.2787                 2.6498                 1.1105
 IR Inten    --      4.5049                 0.0632                 0.4482

                     49                     50                     51
                      A                      A                      A
 Frequencies --   1040.4523              1044.8603              1067.8291
 Red. masses --      1.7896                 2.4471                 2.7405
 Frc consts  --      1.1414                 1.5740                 1.8412
 IR Inten    --      0.1768                15.3939                 9.0305

                     52                     53                     54
                      A                      A                      A
 Frequencies --   1076.2790              1077.2862              1083.0019
 Red. masses --      1.5355                 2.7992                 1.4573
 Frc consts  --      1.0480                 1.9140                 1.0071
 IR Inten    --      4.2205                 9.9672                 3.0449

                     55                     56                     57
                      A                      A                      A
 Frequencies --   1118.2062              1135.4902              1160.9153
 Red. masses --      2.0535                 1.6918                 2.8098
 Frc consts  --      1.5128                 1.2852                 2.2311
 IR Inten    --     10.1887                 3.1598                56.1561

                     58                     59                     60
                      A                      A                      A
 Frequencies --   1166.2863              1200.9839              1202.5335
 Red. masses --      1.9780                 1.7766                 1.6351
 Frc consts  --      1.5852                 1.5098                 1.3931
 IR Inten    --     18.1789                12.0541                 5.9740

                     61                     62                     63
                      A                      A                      A
 Frequencies --   1211.5080              1235.8451              1241.0457
 Red. masses --      1.1590                 1.3764                 3.2172
 Frc consts  --      1.0022                 1.2386                 2.9194
 IR Inten    --      0.7246                 2.4336                22.6957

                     64                     65                     66
                      A                      A                      A
 Frequencies --   1261.3839              1267.2911              1276.0160
 Red. masses --      2.0125                 1.3076                 1.4081
 Frc consts  --      1.8866                 1.2373                 1.3508
 IR Inten    --      4.1125                 1.3569                 0.6156

                     67                     68                     69
                      A                      A                      A
 Frequencies --   1286.1458              1303.0607              1317.6902
 Red. masses --      2.7071                 1.3796                 1.7329
 Frc consts  --      2.6383                 1.3801                 1.7727
 IR Inten    --      0.3990                 0.5472                10.8836

                     70                     71                     72
                      A                      A                      A
 Frequencies --   1332.5271              1365.6651              1370.3458
 Red. masses --      2.1260                 2.2231                 1.6900
 Frc consts  --      2.2241                 2.4428                 1.8698
 IR Inten    --      3.5686                 0.5322                11.6160

                     73                     74                     75
                      A                      A                      A
 Frequencies --   1385.7943              1395.9960              1421.7848
 Red. masses --      1.4457                 1.7851                 1.4728
 Frc consts  --      1.6358                 2.0496                 1.7541
 IR Inten    --     18.9852                 5.6134                 5.3849

                     76                     77                     78
                      A                      A                      A
 Frequencies --   1442.1213              1447.2256              1486.6017
 Red. masses --      1.2479                 1.2829                 2.0440
 Frc consts  --      1.5291                 1.5832                 2.6614
 IR Inten    --      0.0779                 1.3116                 1.6336

                     79                     80                     81
                      A                      A                      A
 Frequencies --   1489.3359              1502.7443              1504.5158
 Red. masses --      1.1068                 1.0430                 1.0912
 Frc consts  --      1.4465                 1.3878                 1.4552
 IR Inten    --      4.4967                 7.0619                 1.9807

                     82                     83                     84
                      A                      A                      A
 Frequencies --   1515.6604              1519.7876              1525.8016
 Red. masses --      1.0446                 1.1006                 1.1909
 Frc consts  --      1.4139                 1.4977                 1.6335
 IR Inten    --      5.4182                 8.1358                 5.8429

                     85                     86                     87
                      A                      A                      A
 Frequencies --   1527.1658              1532.0293              1546.2165
 Red. masses --      1.1930                 1.2708                 2.0787
 Frc consts  --      1.6394                 1.7574                 2.9280
 IR Inten    --     31.9864                10.8887                16.7601

                     88                     89                     90
                      A                      A                      A
 Frequencies --   1603.4062              1651.5270              1660.4399
 Red. masses --      8.8673                 5.2489                 6.4202
 Frc consts  --     13.4316                 8.4351                10.4290
 IR Inten    --     22.8586                 4.7211                12.8653

                     91                     92                     93
                      A                      A                      A
 Frequencies --   1669.0930              3043.1467              3047.8887
 Red. masses --      5.8090                 1.0374                 1.0377
 Frc consts  --      9.5348                 5.6602                 5.6797
 IR Inten    --     23.3685                34.7344                26.7045

                     94                     95                     96
                      A                      A                      A
 Frequencies --   3055.5588              3061.7315              3066.3052
 Red. masses --      1.0843                 1.0731                 1.0725
 Frc consts  --      5.9646                 5.9270                 5.9415
 IR Inten    --     16.3268                13.3372                32.5958

                     97                     98                     99
                      A                      A                      A
 Frequencies --   3074.2288              3077.1438              3094.8086
 Red. masses --      1.0592                 1.0598                 1.1008
 Frc consts  --      5.8980                 5.9124                 6.2121
 IR Inten    --     33.8048                17.1667                21.4334

                    100                    101                    102
                      A                      A                      A
 Frequencies --   3099.4818              3122.5839              3124.1443
 Red. masses --      1.1018                 1.1065                 1.1059
 Frc consts  --      6.2365                 6.3564                 6.3596
 IR Inten    --     16.3771                11.9366                39.4815

                    103                    104                    105
                      A                      A                      A
 Frequencies --   3125.0680              3133.9268              3142.1807
 Red. masses --      1.1009                 1.1072                 1.0997
 Frc consts  --      6.3346                 6.4067                 6.3972
 IR Inten    --     19.2610                31.7567                10.0134

                    106                    107                    108
                      A                      A                      A
 Frequencies --   3162.2360              3175.3841              3184.6490
 Red. masses --      1.0894                 1.0852                 1.0901
 Frc consts  --      6.4185                 6.4472                 6.5136
 IR Inten    --     21.8154                 0.5640                32.2736

                    109                    110                    111
                      A                      A                      A
 Frequencies --   3201.1903              3273.4088              3479.4232
 Red. masses --      1.0963                 1.0980                 1.0736
 Frc consts  --      6.6192                 6.9322                 7.6577
 IR Inten    --     25.1583                 7.6506                 0.0062

 - Thermochemistry -
 -------------------
 Temperature   298.150 Kelvin.  Pressure   1.00000 Atm.
 Atom     1 has atomic number  6 and mass  12.00000

 Molecular mass:   256.15756 amu.
 Principal axes and moments of inertia in atomic units:
                           1         2         3
     Eigenvalues --  2732.26973********************
           X            1.00000  -0.00144  -0.00032
           Y            0.00145   0.99980   0.01977
           Z            0.00029  -0.01977   0.99980
 This molecule is an asymmetric top.
 Rotational symmetry number  1.
 Warning -- assumption of classical behavior for rotation
           may cause significant error
 Rotational temperatures (Kelvin)      0.03170     0.00844     0.00769
 Rotational constants (GHZ):           0.66053     0.17578     0.16013
    1 imaginary frequencies ignored.
 Zero-point vibrational energy     876600.5 (Joules/Mol)
                                  209.51255 (Kcal/Mol)
 Warning -- explicit consideration of  24 degrees of freedom as
           vibrations may cause significant error
 Vibrational temperatures:     25.49    31.16    44.86    59.23    84.89
          (Kelvin)            177.90   196.69   220.32   257.61   303.07
                              307.64   327.11   381.61   413.46   460.58
                              503.44   546.47   573.28   648.91   654.91
                              733.09   761.65   811.35   846.94   903.19
                              924.02   944.95  1020.29  1033.75  1055.91
                             1111.89  1148.65  1179.68  1192.20  1213.34
                             1226.76  1295.07  1304.96  1329.27  1341.62
                             1374.38  1399.75  1409.25  1427.06  1445.86
                             1469.28  1489.39  1496.98  1503.32  1536.37
                             1548.53  1549.97  1558.20  1608.85  1633.72
                             1670.30  1678.03  1727.95  1730.18  1743.09
                             1778.11  1785.59  1814.85  1823.35  1835.90
                             1850.48  1874.81  1895.86  1917.21  1964.89
                             1971.62  1993.85  2008.53  2045.63  2074.89
                             2082.23  2138.89  2142.82  2162.11  2164.66
                             2180.70  2186.64  2195.29  2197.25  2204.25
                             2224.66  2306.94  2376.18  2389.00  2401.45
                             4378.41  4385.23  4396.27  4405.15  4411.73
                             4423.13  4427.32  4452.74  4459.46  4492.70
                             4494.95  4496.28  4509.02  4520.90  4549.75
                             4568.67  4582.00  4605.80  4709.71  5006.11

 Zero-point correction=                           0.333880 (Hartree/Particle)
 Thermal correction to Energy=                    0.350999
 Thermal correction to Enthalpy=                  0.351943
 Thermal correction to Gibbs Free Energy=         0.285770
 Sum of electronic and zero-point Energies=           -806.181958
 Sum of electronic and thermal Energies=              -806.164839
 Sum of electronic and thermal Enthalpies=            -806.163895
 Sum of electronic and thermal Free Energies=         -806.230068

                     E (Thermal)             CV                S
                      KCal/Mol        Cal/Mol-Kelvin    Cal/Mol-Kelvin
 Total                  220.255             65.886            139.273
 Electronic               0.000              0.000              0.000
 Translational            0.889              2.981             42.522
 Rotational               0.889              2.981             34.113
 Vibrational            218.478             59.924             62.638
 Vibration     1          0.593              1.986              6.875
 Vibration     2          0.593              1.985              6.476
 Vibration     3          0.594              1.983              5.753
 Vibration     4          0.594              1.981              5.202
 Vibration     5          0.596              1.974              4.490
 Vibration     6          0.610              1.929              3.043
 Vibration     7          0.614              1.917              2.849
 Vibration     8          0.619              1.899              2.633
 Vibration     9          0.629              1.868              2.338
 Vibration    10          0.643              1.825              2.038
 Vibration    11          0.644              1.820              2.011
 Vibration    12          0.651              1.799              1.900
 Vibration    13          0.671              1.737              1.627
 Vibration    14          0.685              1.697              1.489
 Vibration    15          0.706              1.635              1.310
 Vibration    16          0.727              1.575              1.167
 Vibration    17          0.750              1.513              1.040
 Vibration    18          0.765              1.473              0.968
 Vibration    19          0.810              1.359              0.793
 Vibration    20          0.814              1.349              0.780
 Vibration    21          0.865              1.229              0.635
 Vibration    22          0.884              1.185              0.589
 Vibration    23          0.920              1.109              0.516
 Vibration    24          0.946              1.056              0.470

                           ! Non-Optimized Parameters !
 Normal termination of Gaussian 16 at Mon Dec 14 13:49:20 2020.

 ----------------------------------------------------------------------
 # B3LYP/6-311++G(d,p) empiricaldispersion=gd3bj scf=xqc pop=npa geom=c
 heck
 ----------------------------------------------------------------------

 ---------------------------------------
 CID_103275503_JID_9210_Energie_neutraal
 ---------------------------------------
 Structure from the checkpoint file:  "JID_9210.chk"
 Charge =  0 Multiplicity = 1

 SCF Done:  E(RB3LYP) =  -806.730191752     A.U. after   14 cycles
 Normal termination of Gaussian 16 at Mon Dec 14 13:57:58 2020.

 ----------------------------------------------------------------------
 # B3LYP/6-311++G(d,p) empiricaldispersion=gd3bj scf=xqc pop=npa geom=c
 heck
 ----------------------------------------------------------------------

 -------------------------------------
 CID_103275503_JID_9210_Energie_kation
 -------------------------------------
 Structure from the checkpoint file:  "JID_9210.chk"
 Charge =  1 Multiplicity = 2

 SCF Done:  E(UB3LYP) =  -806.446298337     A.U. after   28 cycles
 Normal termination of Gaussian 16 at Mon Dec 14 14:22:01 2020.
 Gaussian 16:  ES64L-G16RevA.03 25-Dec-2016

 ----------------------------------------------------------------------
 # B3LYP/6-311++G(d,p) empiricaldispersion=gd3bj scf=xqc pop=npa geom=c
 heck
 ----------------------------------------------------------------------

 ------------------------------------
 CID_103275503_JID_9210_Energie_anion
 ------------------------------------
 Structure from the checkpoint file:  "JID_9210.chk"
 Charge = -1 Multiplicity = 2

                         Standard orientation:
 ---------------------------------------------------------------------
 Center     Atomic      Atomic             Coordinates (Angstroms)
 Number     Number       Type             X           Y           Z
 ---------------------------------------------------------------------
      1          6           0        5.665625   -1.163211   -1.032320
      2          6           0        4.488949   -0.671271   -0.224048
      3          6           0        3.356700   -0.151166   -0.865200
      4          6           0        2.247258    0.311420   -0.153156
      5          6           0        2.281940    0.246526    1.247937
      6          6           0        3.397135   -0.265932    1.902926
      7          6           0        4.496140   -0.722898    1.171966
      8          6           0        1.050818    0.865991   -0.876205
      9          6           0       -0.370030    0.326432   -0.539368
     10          6           0       -0.912536    1.783075   -0.703967
     11          6           0        0.532663    2.292298   -0.519894
     12          7           0       -1.908084    2.355570    0.180678
     13          6           0       -3.257928    1.808752    0.024289
     14          6           0       -3.378433    0.345035    0.335435
     15          7           0       -3.281603   -0.234232    1.494310
     16          6           0       -3.328094   -1.596086    1.213516
     17          6           0       -3.452582   -1.786668   -0.126418
     18          8           0       -3.487029   -0.535794   -0.705084
     19          6           0       -3.557911   -2.966664   -1.020838
     20          1           0        5.380921   -1.998140   -1.684625
     21          1           0        6.064669   -0.372331   -1.679106
     22          1           0        6.478037   -1.507801   -0.385135
     23          1           0        3.339814   -0.104929   -1.952971
     24          1           0        1.432074    0.597289    1.827633
     25          1           0        3.413697   -0.311550    2.988622
     26          1           0        5.364613   -1.122309    1.689897
     27          1           0        1.220360    0.800463   -1.956596
     28          1           0       -0.778865   -0.459204   -1.180542
     29          1           0       -0.438055   -0.000456    0.503569
     30          1           0       -1.252576    1.941303   -1.734865
     31          1           0        0.729067    2.525963    0.533116
     32          1           0        0.870149    3.133371   -1.132438
     33          1           0       -1.616549    2.217743    1.148109
     34          1           0       -3.926076    2.363242    0.690620
     35          1           0       -3.588860    1.980912   -1.005011
     36          1           0       -3.271818   -2.340395    1.995253
     37          1           0       -4.501745   -2.965472   -1.579298
     38          1           0       -2.740450   -2.990932   -1.751487
     39          1           0       -3.512649   -3.883574   -0.426930
 ---------------------------------------------------------------------

 SCF Done:  E(UB3LYP) =  -806.717600003     A.U. after   33 cycles
 SCF Done:  E(UB3LYP) =  -806.717600003     a.u. after    1 cycles

 The electronic state is 2-A.
 Alpha  occ. eigenvalues --  -19.11103 -14.22627 -14.22527 -10.17178 -10.14789
 Alpha  occ. eigenvalues --  -10.13262 -10.11622 -10.10750 -10.09721 -10.09432
 Alpha  occ. eigenvalues --  -10.09276 -10.08998 -10.08856 -10.08522 -10.08510
 Alpha  occ. eigenvalues --  -10.08461 -10.08202 -10.08139 -10.07620  -1.04478
 Alpha  occ. eigenvalues --   -0.84482  -0.83076  -0.77925  -0.75199  -0.71157
 Alpha  occ. eigenvalues --   -0.68736  -0.66764  -0.64165  -0.60132  -0.59295
 Alpha  occ. eigenvalues --   -0.57730  -0.56211  -0.52982  -0.51487  -0.50224
 Alpha  occ. eigenvalues --   -0.48973  -0.46303  -0.43298  -0.42862  -0.41432
 Alpha  occ. eigenvalues --   -0.39845  -0.39300  -0.37834  -0.36470  -0.35953
 Alpha  occ. eigenvalues --   -0.35353  -0.34665  -0.33572  -0.32608  -0.32451
 Alpha  occ. eigenvalues --   -0.32066  -0.31912  -0.30760  -0.30365  -0.30098
 Alpha  occ. eigenvalues --   -0.29857  -0.29464  -0.27418  -0.26537  -0.26027
 Alpha  occ. eigenvalues --   -0.24484  -0.23792  -0.23376  -0.22598  -0.20970
 Alpha  occ. eigenvalues --   -0.16438  -0.16129  -0.15459  -0.14503   0.03927
 Alpha virt. eigenvalues --    0.05346   0.06241   0.06519   0.06841   0.06989
 Alpha virt. eigenvalues --    0.07235   0.07556   0.07783   0.08371   0.08774
 Alpha virt. eigenvalues --    0.09074   0.09509   0.09904   0.10254   0.10784

  Beta  occ. eigenvalues --  -19.11093 -14.22626 -14.22525 -10.17177 -10.14788
  Beta  occ. eigenvalues --  -10.13257 -10.11617 -10.10739 -10.09722 -10.09433
  Beta  occ. eigenvalues --  -10.09268 -10.08995 -10.08794 -10.08518 -10.08505
  Beta  occ. eigenvalues --  -10.08449 -10.08189 -10.08109 -10.07609  -1.04467
  Beta  occ. eigenvalues --   -0.84475  -0.83069  -0.77916  -0.75186  -0.71133
  Beta  occ. eigenvalues --   -0.68718  -0.66749  -0.64125  -0.60090  -0.59254
  Beta  occ. eigenvalues --   -0.57709  -0.56193  -0.52955  -0.51463  -0.50205
  Beta  occ. eigenvalues --   -0.48955  -0.46277  -0.43270  -0.42838  -0.41409
  Beta  occ. eigenvalues --   -0.39825  -0.39277  -0.37816  -0.36447  -0.35928
  Beta  occ. eigenvalues --   -0.35314  -0.34639  -0.33545  -0.32579  -0.32425
  Beta  occ. eigenvalues --   -0.32020  -0.31865  -0.30745  -0.30335  -0.30065
  Beta  occ. eigenvalues --   -0.29845  -0.29446  -0.27396  -0.26523  -0.26006
  Beta  occ. eigenvalues --   -0.24469  -0.23777  -0.23363  -0.22585  -0.20962
  Beta  occ. eigenvalues --   -0.16429  -0.16118  -0.15448  -0.14493
  Beta virt. eigenvalues --    0.05791   0.06258   0.06658   0.06762   0.06897
  Beta virt. eigenvalues --    0.07178   0.07336   0.07827   0.07863   0.08861
  Beta virt. eigenvalues --    0.09036   0.09486   0.09633   0.10289   0.10486

 Mulliken charges and spin densities:
               1          2
     1  C    1.988934  -2.439613
     2  C   -0.481777   0.733515
     3  C   -0.602962   0.460383
     4  C    0.075646   1.015985
     5  C   -0.357988   0.289027
     6  C   -0.031043  -0.205591
     7  C   -0.056603  -1.028289
     8  C    0.129489  -0.316229
     9  C   -0.350016  -0.258268
    10  C   -0.061350  -0.182758
    11  C   -0.456851  -0.167142
    12  N    0.093200   0.043136
    13  C   -0.110639  -0.723966
    14  C   -0.213319   0.101847
    15  N    0.077613   0.025146
    16  C   -0.312297   0.173583
    17  C   -0.801810   1.155423
    18  O    0.083715   0.033514
    19  C    2.298109  -2.856665
    20  H   -0.097029   0.265997
    21  H   -0.101348   0.259946
    22  H   -0.304634   0.451088
    23  H   -0.183361   0.330548
    24  H    0.181121  -0.032628
    25  H   -0.064239   0.225717
    26  H   -0.177377   0.295840
    27  H   -0.359783   0.567044
    28  H    0.219584  -0.068165
    29  H    0.071473  -0.002149
    30  H    0.066543   0.116352
    31  H    0.084800   0.048622
    32  H    0.106839   0.072619
    33  H    0.206319   0.014275
    34  H    0.182864   0.013818
    35  H    0.022034   0.155245
    36  H   -0.397141   0.558546
    37  H   -0.383922   0.547842
    38  H   -0.482616   0.654352
    39  H   -0.500179   0.672054
 Sum of Mulliken charges =  -1.00000   1.00000

 Dipole moment (field-independent basis, Debye):
    X=             -0.8568    Y=              6.7037    Z=              3.1381  Tot=              7.4513
 Quadrupole moment (field-independent basis, Debye-Ang):
   XX=           -224.4956   YY=           -173.0814   ZZ=           -155.0133
   XY=            -13.0764   XZ=              1.8954   YZ=             -5.3318

 Summary of Natural Population Analysis:

                                       Natural Population
                Natural  -----------------------------------------------
    Atom  No    Charge         Core      Valence    Rydberg      Total
 -----------------------------------------------------------------------
      C    1   -0.29107      0.99964     2.28642    0.00502     3.29107
      C    2   -0.01343      0.99952     2.00394    0.00997     3.01343
      C    3   -0.09519      0.99947     2.08670    0.00902     3.09519
      C    4   -0.01056      0.99950     2.00026    0.01081     3.01056
      C    5   -0.10511      0.99951     2.09792    0.00768     3.10511
      C    6   -0.09622      0.99957     2.08705    0.00960     3.09622
      C    7   -0.10785      0.99951     2.09863    0.00971     3.10785
      C    8   -0.11603      0.99957     2.10429    0.01216     3.11603
      C    9   -0.19309      0.99961     2.18455    0.00893     3.19309
      C   10   -0.01399      0.99958     2.00044    0.01397     3.01399
      C   11   -0.17849      0.99961     2.16953    0.00935     3.17849
      N   12   -0.32786      0.99973     2.81741    0.01072     3.82786
      C   13   -0.11560      0.99957     2.10499    0.01104     3.11560
      C   14    0.25230      0.99960     1.72759    0.02052     2.74770
      N   15   -0.25660      0.99968     2.74753    0.00939     3.75660
      C   16   -0.04889      0.99948     2.03572    0.01369     3.04889
      C   17    0.13969      0.99947     1.84648    0.01435     2.86031
      O   18   -0.24085      0.99985     3.23292    0.00808     4.24085
      C   19   -0.30801      0.99963     2.30233    0.00605     3.30801
      H   20    0.10589      0.00000     0.39279    0.00132     0.39411
      H   21    0.10431      0.00000     0.39439    0.00130     0.39569
      H   22    0.10191      0.00000     0.39692    0.00118     0.39809
      H   23    0.09971      0.00000     0.39857    0.00173     0.40029
      H   24    0.09903      0.00000     0.39977    0.00120     0.40097
      H   25    0.09892      0.00000     0.40031    0.00077     0.40108
      H   26    0.09946      0.00000     0.39961    0.00093     0.40054
      H   27    0.10198      0.00000     0.39605    0.00198     0.39802
      H   28    0.10516      0.00000     0.39337    0.00148     0.39484
      H   29    0.09973      0.00000     0.39815    0.00213     0.40027
      H   30    0.09316      0.00000     0.40546    0.00137     0.40684
      H   31    0.09576      0.00000     0.40298    0.00126     0.40424
      H   32    0.09943      0.00000     0.39965    0.00093     0.40057
      H   33    0.17334      0.00000     0.32428    0.00238     0.32666
      H   34    0.10546      0.00000     0.39366    0.00088     0.39454
      H   35    0.10354      0.00000     0.39525    0.00122     0.39646
      H   36    0.10331      0.00000     0.39561    0.00108     0.39669
      H   37    0.11032      0.00000     0.38774    0.00195     0.38968
      H   38    0.11300      0.00000     0.38479    0.00221     0.38700
      H   39    0.11349      0.00000     0.38438    0.00212     0.38651
 =======================================================================
   * Total *    0.00000     18.99211    49.77844    0.22945    69.00000

 Normal termination of Gaussian 16 at Mon Dec 14 14:50:56 2020.
