 Gaussian 16, Revision A.03,

 -----------------------------------------------------------
 # opt freq B3LYP/6-31G(d) empiricaldispersion=gd3bj scf=xqc
 -----------------------------------------------------------

 -----------------------------
 CID_69970207_JID_895_neutraal
 -----------------------------
 Symbolic Z-matrix:
 Charge =  0 Multiplicity = 1

 SCF Done:  E(RB3LYP) =  -816.336825420     A.U. after   15 cycles
 SCF Done:  E(RB3LYP) =  -816.351281715     A.U. after   13 cycles
 SCF Done:  E(RB3LYP) =  -816.354048122     A.U. after   13 cycles
 SCF Done:  E(RB3LYP) =  -816.355755722     A.U. after   13 cycles
 SCF Done:  E(RB3LYP) =  -816.356712212     A.U. after   13 cycles
 SCF Done:  E(RB3LYP) =  -816.357052779     A.U. after   12 cycles
 SCF Done:  E(RB3LYP) =  -816.357175319     A.U. after   12 cycles
 SCF Done:  E(RB3LYP) =  -816.357280506     A.U. after   11 cycles
 SCF Done:  E(RB3LYP) =  -816.357329670     A.U. after   11 cycles
 SCF Done:  E(RB3LYP) =  -816.357374107     A.U. after    9 cycles
 SCF Done:  E(RB3LYP) =  -816.360073633     A.U. after   10 cycles
 SCF Done:  E(RB3LYP) =  -816.360077063     A.U. after    9 cycles
 SCF Done:  E(RB3LYP) =  -816.360078679     A.U. after    8 cycles
 SCF Done:  E(RB3LYP) =  -816.360081912     A.U. after   10 cycles
 SCF Done:  E(RB3LYP) =  -816.360082607     A.U. after    9 cycles
 Optimization completed.
    -- Stationary point found.
 Normal termination of Gaussian 16 at Tue Dec  8 13:28:39 2020.

 --------------------------------------------------------------------
 #N Geom=AllCheck Guess=TCheck SCRF=Check GenChk RB3LYP/6-31G(d) Freq
 --------------------------------------------------------------------

 Structure from the checkpoint file:  "JID_895.chk"
 -----------------------------
 CID_69970207_JID_895_neutraal
 -----------------------------
 Charge =  0 Multiplicity = 1

 SCF Done:  E(RB3LYP) =  -816.360082607     A.U. after    1 cycles

  Exact polarizability: 100.300   5.374  91.442   1.893  -2.710  72.968
 Approx polarizability: 159.794   4.374 137.096   6.869  -0.153 116.550

                      1                      2                      3
                      A                      A                      A
 Frequencies --     61.6858                86.7754               167.6281
 Red. masses --      5.2491                 5.0068                 2.2890
 Frc consts  --      0.0118                 0.0222                 0.0379
 IR Inten    --      1.8294                 5.9511                 2.9979

                      4                      5                      6
                      A                      A                      A
 Frequencies --    217.7860               297.8243               315.7747
 Red. masses --      1.3232                 4.4547                 3.1788
 Frc consts  --      0.0370                 0.2328                 0.1868
 IR Inten    --     24.9918                 1.3735                12.7471

                      7                      8                      9
                      A                      A                      A
 Frequencies --    328.4788               378.8089               411.6252
 Red. masses --      3.9589                 2.8546                 8.4809
 Frc consts  --      0.2517                 0.2413                 0.8466
 IR Inten    --      9.3427                 7.6755                 9.4462

                     10                     11                     12
                      A                      A                      A
 Frequencies --    460.4171               521.1033               534.3558
 Red. masses --      3.8691                 4.0464                 3.2560
 Frc consts  --      0.4832                 0.6474                 0.5478
 IR Inten    --      6.4181                 0.7128                 5.2520

                     13                     14                     15
                      A                      A                      A
 Frequencies --    586.5993               654.8670               674.0102
 Red. masses --      2.7154                 4.8237                 2.4146
 Frc consts  --      0.5505                 1.2188                 0.6463
 IR Inten    --     11.0632                 9.3396                18.1753

                     16                     17                     18
                      A                      A                      A
 Frequencies --    734.4629               780.4540               832.4303
 Red. masses --      2.7954                 2.9262                 2.3888
 Frc consts  --      0.8885                 1.0501                 0.9753
 IR Inten    --     12.6342                27.0319                10.4167

                     19                     20                     21
                      A                      A                      A
 Frequencies --    869.2068               909.2945               933.2937
 Red. masses --      1.9398                 2.1863                 2.1347
 Frc consts  --      0.8635                 1.0650                 1.0955
 IR Inten    --    201.4165                17.8593                 9.1631

                     22                     23                     24
                      A                      A                      A
 Frequencies --    944.3229               991.5464              1014.7346
 Red. masses --      1.4172                 2.5552                 2.8805
 Frc consts  --      0.7446                 1.4801                 1.7475
 IR Inten    --     12.3367                 0.8157                58.4165

                     25                     26                     27
                      A                      A                      A
 Frequencies --   1037.0378              1106.8115              1134.2406
 Red. masses --      3.3874                 2.6138                 1.5580
 Frc consts  --      2.1464                 1.8866                 1.1810
 IR Inten    --     55.5378                15.6798                38.8298

                     28                     29                     30
                      A                      A                      A
 Frequencies --   1198.7887              1200.4241              1223.4941
 Red. masses --      1.2955                 1.5464                 1.2589
 Frc consts  --      1.0969                 1.3130                 1.1103
 IR Inten    --     12.9474                12.3959                37.6165

                     31                     32                     33
                      A                      A                      A
 Frequencies --   1260.2137              1292.2651              1306.0900
 Red. masses --      1.8831                 1.4151                 2.0004
 Frc consts  --      1.7620                 1.3923                 2.0106
 IR Inten    --     44.3905                20.5342                32.1140

                     34                     35                     36
                      A                      A                      A
 Frequencies --   1368.0907              1416.0985              1476.7456
 Red. masses --      2.4738                 1.9200                 1.1260
 Frc consts  --      2.7280                 2.2685                 1.4468
 IR Inten    --    123.8109                62.9519                 3.8517

                     37                     38                     39
                      A                      A                      A
 Frequencies --   1499.3532              1692.6710              1709.3250
 Red. masses --      1.1024                 1.1208                 5.6444
 Frc consts  --      1.4602                 1.8919                 9.7167
 IR Inten    --      4.1320                27.2398                19.5581

                     40                     41                     42
                      A                      A                      A
 Frequencies --   1894.0479              3064.5114              3109.9499
 Red. masses --     12.7185                 1.0659                 1.0595
 Frc consts  --     26.8824                 5.8980                 6.0374
 IR Inten    --    525.1326                14.2950                 6.1176

                     43                     44                     45
                      A                      A                      A
 Frequencies --   3136.4332              3175.2243              3195.3831
 Red. masses --      1.0988                 1.1080                 1.0854
 Frc consts  --      6.3688                 6.5818                 6.5295
 IR Inten    --      5.1226                 2.6718                 0.6617

                     46                     47                     48
                      A                      A                      A
 Frequencies --   3215.9972              3480.7090              3567.6822
 Red. masses --      1.1006                 1.0493                 1.0931
 Frc consts  --      6.7066                 7.4904                 8.1977
 IR Inten    --     27.2209                 2.6804                 4.5205

 - Thermochemistry -
 -------------------
 Temperature   298.150 Kelvin.  Pressure   1.00000 Atm.
 Atom     1 has atomic number  6 and mass  12.00000

 Molecular mass:   156.03573 amu.
 Principal axes and moments of inertia in atomic units:
                           1         2         3
     Eigenvalues --  1133.606001480.190561950.68488
           X            0.99036   0.13849  -0.00374
           Y           -0.13849   0.99036   0.00104
           Z            0.00385  -0.00051   0.99999
 This molecule is an asymmetric top.
 Rotational symmetry number  1.
 Warning -- assumption of classical behavior for rotation
           may cause significant error
 Rotational temperatures (Kelvin)      0.07641     0.05852     0.04440
 Rotational constants (GHZ):           1.59204     1.21926     0.92518
 Zero-point vibrational energy     367666.7 (Joules/Mol)
                                   87.87445 (Kcal/Mol)
 Warning -- explicit consideration of  13 degrees of freedom as
           vibrations may cause significant error
 Vibrational temperatures:     88.75   124.85   241.18   313.35   428.50
          (Kelvin)            454.33   472.61   545.02   592.24   662.44
                              749.75   768.82   843.99   942.21   969.75
                             1056.73  1122.90  1197.68  1250.59  1308.27
                             1342.80  1358.67  1426.61  1459.98  1492.07
                             1592.45  1631.92  1724.79  1727.14  1760.34
                             1813.17  1859.28  1879.17  1968.38  2037.45
                             2124.71  2157.23  2435.38  2459.34  2725.11
                             4409.15  4474.52  4512.63  4568.44  4597.44
                             4627.10  5007.96  5133.10

 Zero-point correction=                           0.140037 (Hartree/Particle)
 Thermal correction to Energy=                    0.149238
 Thermal correction to Enthalpy=                  0.150182
 Thermal correction to Gibbs Free Energy=         0.105436
 Sum of electronic and zero-point Energies=           -816.220046
 Sum of electronic and thermal Energies=              -816.210845
 Sum of electronic and thermal Enthalpies=            -816.209901
 Sum of electronic and thermal Free Energies=         -816.254647

                     E (Thermal)             CV                S
                      KCal/Mol        Cal/Mol-Kelvin    Cal/Mol-Kelvin
 Total                   93.648             35.183             94.176
 Electronic               0.000              0.000              0.000
 Translational            0.889              2.981             41.044
 Rotational               0.889              2.981             29.572
 Vibrational             91.871             29.221             23.560
 Vibration     1          0.597              1.973              4.403
 Vibration     2          0.601              1.958              3.731
 Vibration     3          0.624              1.882              2.462
 Vibration     4          0.646              1.814              1.977
 Vibration     5          0.691              1.678              1.429
 Vibration     6          0.703              1.644              1.332
 Vibration     7          0.712              1.619              1.268
 Vibration     8          0.749              1.515              1.044
 Vibration     9          0.776              1.445              0.921
 Vibration    10          0.818              1.338              0.765
 Vibration    11          0.876              1.203              0.607
 Vibration    12          0.889              1.174              0.578
 Vibration    13          0.944              1.060              0.473

                           ! Non-Optimized Parameters !
 Normal termination of Gaussian 16 at Tue Dec  8 13:31:58 2020.

 ----------------------------------------------------------------------
 # B3LYP/6-311++G(d,p) empiricaldispersion=gd3bj scf=xqc pop=npa geom=c
 heck
 ----------------------------------------------------------------------

 -------------------------------------
 CID_69970207_JID_895_Energie_neutraal
 -------------------------------------
 Structure from the checkpoint file:  "JID_895.chk"
 Charge =  0 Multiplicity = 1

 SCF Done:  E(RB3LYP) =  -816.513026608     A.U. after   15 cycles
 Normal termination of Gaussian 16 at Tue Dec  8 13:33:23 2020.

 ----------------------------------------------------------------------
 # B3LYP/6-311++G(d,p) empiricaldispersion=gd3bj scf=xqc pop=npa geom=c
 heck
 ----------------------------------------------------------------------

 -----------------------------------
 CID_69970207_JID_895_Energie_kation
 -----------------------------------
 Structure from the checkpoint file:  "JID_895.chk"
 Charge =  1 Multiplicity = 2

 SCF Done:  E(UB3LYP) =  -816.195499086     A.U. after   29 cycles
 Normal termination of Gaussian 16 at Tue Dec  8 13:39:33 2020.
 Gaussian 16:  ES64L-G16RevA.03 25-Dec-2016

 ----------------------------------------------------------------------
 # B3LYP/6-311++G(d,p) empiricaldispersion=gd3bj scf=xqc pop=npa geom=c
 heck
 ----------------------------------------------------------------------

 ----------------------------------
 CID_69970207_JID_895_Energie_anion
 ----------------------------------
 Structure from the checkpoint file:  "JID_895.chk"
 Charge = -1 Multiplicity = 2

                         Standard orientation:
 ---------------------------------------------------------------------
 Center     Atomic      Atomic             Coordinates (Angstroms)
 Number     Number       Type             X           Y           Z
 ---------------------------------------------------------------------
      1          6           0       -1.693068   -1.001571   -0.749214
      2          6           0       -1.286145   -1.731295    0.501401
      3          6           0       -0.121020   -1.456999    1.094716
      4          7           0        0.647286   -0.390828    0.578881
      5          6           0        1.734595   -0.355415   -0.293702
      6          8           0        2.562115   -1.184010   -0.577353
      7          6           0        1.387846    1.078014   -0.738300
      8          6           0        0.157246    0.951729    0.202311
      9         16           0       -1.538606    0.838078   -0.589126
     10          7           0        0.182680    1.895467    1.287369
     11          1           0       -2.740464   -1.181663   -1.001670
     12          1           0       -1.083926   -1.331143   -1.598749
     13          1           0       -1.951012   -2.485019    0.913581
     14          1           0        0.254943   -1.970053    1.974533
     15          1           0        1.154422    1.162571   -1.800555
     16          1           0        2.109687    1.840277   -0.435473
     17          1           0        0.105819    2.843343    0.923548
     18          1           0       -0.615171    1.745261    1.902602
 ---------------------------------------------------------------------

 SCF Done:  E(UB3LYP) =  -816.500924940     A.U. after   33 cycles
 SCF Done:  E(UB3LYP) =  -816.500924940     a.u. after    1 cycles

 The electronic state is 2-A.
 Alpha  occ. eigenvalues --  -88.73026 -18.99938 -14.23960 -14.19983 -10.17304
 Alpha  occ. eigenvalues --  -10.17032 -10.09951 -10.09348 -10.08140 -10.07165
 Alpha  occ. eigenvalues --   -7.81671  -5.78058  -5.77707  -5.77018  -0.94774
 Alpha  occ. eigenvalues --   -0.87814  -0.78411  -0.71505  -0.67270  -0.60530
 Alpha  occ. eigenvalues --   -0.56293  -0.50643  -0.47944  -0.42260  -0.40408
 Alpha  occ. eigenvalues --   -0.38565  -0.37146  -0.36856  -0.34858  -0.31681
 Alpha  occ. eigenvalues --   -0.30656  -0.29633  -0.28581  -0.27272  -0.26365
 Alpha  occ. eigenvalues --   -0.22834  -0.19058  -0.16712  -0.15743  -0.13371
 Alpha  occ. eigenvalues --   -0.11951   0.04843
 Alpha virt. eigenvalues --    0.07049   0.08021   0.08493   0.09363   0.10261
 Alpha virt. eigenvalues --    0.10764   0.11460   0.11678   0.12161   0.13474
 Alpha virt. eigenvalues --    0.14386   0.14833   0.15669   0.16397   0.17104

  Beta  occ. eigenvalues --  -88.73009 -18.99925 -14.23971 -14.19925 -10.17277
  Beta  occ. eigenvalues --  -10.17022 -10.09923 -10.09224 -10.08119 -10.07099
  Beta  occ. eigenvalues --   -7.81650  -5.78028  -5.77696  -5.77003  -0.94740
  Beta  occ. eigenvalues --   -0.87771  -0.78308  -0.71349  -0.67166  -0.60429
  Beta  occ. eigenvalues --   -0.56172  -0.50510  -0.47848  -0.42175  -0.40313
  Beta  occ. eigenvalues --   -0.38461  -0.37074  -0.36750  -0.34788  -0.31578
  Beta  occ. eigenvalues --   -0.30588  -0.29549  -0.28496  -0.27200  -0.26304
  Beta  occ. eigenvalues --   -0.22737  -0.18751  -0.16695  -0.15663  -0.13130
  Beta  occ. eigenvalues --   -0.11899
  Beta virt. eigenvalues --    0.07604   0.08263   0.08711   0.09098   0.09959
  Beta virt. eigenvalues --    0.10828   0.11090   0.11664   0.12272   0.12587
  Beta virt. eigenvalues --    0.13700   0.14510   0.15173   0.15801   0.16448

 Mulliken charges and spin densities:
               1          2
     1  C    0.703375  -1.397386
     2  C   -0.878443   1.211782
     3  C    0.602525  -0.998802
     4  N    0.270109  -0.136356
     5  C    0.467832  -0.436830
     6  O   -0.401886   0.040898
     7  C    0.471258  -0.878082
     8  C   -0.546333   0.755952
     9  S    0.539352  -0.655983
    10  N   -0.366061   0.053195
    11  H   -0.145153   0.348000
    12  H    0.051125   0.141062
    13  H   -1.024471   1.214710
    14  H    0.038748   0.107484
    15  H   -0.219831   0.407018
    16  H    0.098097   0.056030
    17  H   -0.546160   0.807436
    18  H   -0.114082   0.359873
 Sum of Mulliken charges =  -1.00000   1.00000

 Dipole moment (field-independent basis, Debye):
    X=              1.7552    Y=             -0.8886    Z=             -1.7766  Tot=              2.6508
 Quadrupole moment (field-independent basis, Debye-Ang):
   XX=           -109.5991   YY=           -114.1620   ZZ=            -93.0462
   XY=              0.8457   XZ=              5.4185   YZ=             -1.7258

 Summary of Natural Population Analysis:

                                       Natural Population
                Natural  -----------------------------------------------
    Atom  No    Charge         Core      Valence    Rydberg      Total
 -----------------------------------------------------------------------
      C    1   -0.26609      0.99957     2.25402    0.01250     3.26609
      C    2   -0.08663      0.99953     2.07649    0.01060     3.08663
      C    3    0.01577      0.99947     1.97107    0.01369     2.98423
      N    4   -0.27318      0.99959     2.76082    0.01277     3.77318
      C    5    0.36170      0.99967     1.61506    0.02357     2.63830
      O    6   -0.30367      0.99986     3.29789    0.00591     4.30367
      C    7   -0.23408      0.99952     2.22403    0.01053     3.23408
      C    8    0.10434      0.99962     1.87400    0.02204     2.89566
      S    9    0.08313      4.99959     2.90166    0.01562     7.91687
      N   10   -0.41920      0.99971     2.90760    0.01189     3.91920
      H   11    0.11197      0.00000     0.38646    0.00157     0.38803
      H   12    0.10574      0.00000     0.39264    0.00162     0.39426
      H   13    0.10575      0.00000     0.39085    0.00341     0.39425
      H   14    0.09712      0.00000     0.40183    0.00105     0.40288
      H   15    0.11540      0.00000     0.38297    0.00163     0.38460
      H   16    0.11155      0.00000     0.38722    0.00124     0.38845
      H   17    0.18614      0.00000     0.30608    0.00778     0.31386
      H   18    0.18426      0.00000     0.31229    0.00345     0.31574
 =======================================================================
   * Total *    0.00000     13.99615    26.84298    0.16087    41.00000

 Normal termination of Gaussian 16 at Tue Dec  8 13:43:11 2020.
