 Gaussian 16, Revision A.03,

 -----------------------------------------------------------
 # opt freq B3LYP/6-31G(d) empiricaldispersion=gd3bj scf=xqc
 -----------------------------------------------------------

 ------------------------------
 CID_12708068_JID_3252_neutraal
 ------------------------------
 Symbolic Z-matrix:
 Charge =  0 Multiplicity = 1

 SCF Done:  E(RB3LYP) =  -567.938222707     A.U. after   16 cycles
 SCF Done:  E(RB3LYP) =  -567.942965060     A.U. after   14 cycles
 SCF Done:  E(RB3LYP) =  -567.945548747     A.U. after   14 cycles
 SCF Done:  E(RB3LYP) =  -567.946579082     A.U. after   14 cycles
 SCF Done:  E(RB3LYP) =  -567.947038415     A.U. after   13 cycles
 SCF Done:  E(RB3LYP) =  -567.947512639     A.U. after   14 cycles
 SCF Done:  E(RB3LYP) =  -567.947845710     A.U. after   14 cycles
 SCF Done:  E(RB3LYP) =  -567.948321512     A.U. after   15 cycles
 SCF Done:  E(RB3LYP) =  -567.948806201     A.U. after   14 cycles
 SCF Done:  E(RB3LYP) =  -567.949280667     A.U. after   13 cycles
 SCF Done:  E(RB3LYP) =  -567.949531802     A.U. after   12 cycles
 SCF Done:  E(RB3LYP) =  -567.949576648     A.U. after   12 cycles
 SCF Done:  E(RB3LYP) =  -567.949590758     A.U. after   10 cycles
 SCF Done:  E(RB3LYP) =  -567.949597113     A.U. after   10 cycles
 SCF Done:  E(RB3LYP) =  -567.949597918     A.U. after   10 cycles
 Optimization completed.
    -- Stationary point found.

 1\1\GINC-NODE103\FOpt\RB3LYP\6-31G(d)\C9H10N4\VSC10255\09-Dec-2020\0\\
 # opt freq B3LYP/6-31G(d) empiricaldispersion=gd3bj scf=xqc\\CID_12708
 068_JID_3252_neutraal\\0,1\C,0.7720191339,0.2888332,-0.4462463777\C,0.
 8900261468,1.2082030345,0.7689733872\N,-0.3842398397,1.7985681094,1.13
 38298106\N,-0.8887285237,2.792507965,0.3907575741\C,-0.0501525331,3.27
 87333173,-0.5064603552\N,1.3228865023,3.2234037999,-0.2495596913\N,1.8
 204231989,2.3436484683,0.4965634084\C,-0.5261871449,4.1622073338,-1.57
 6903198\C,0.3706702657,4.9649194878,-2.2987755918\C,-0.0927132314,5.78

 Normal termination of Gaussian 16 at Wed Dec  9 22:31:06 2020.

 --------------------------------------------------------------------
 #N Geom=AllCheck Guess=TCheck SCRF=Check GenChk RB3LYP/6-31G(d) Freq
 --------------------------------------------------------------------

 Structure from the checkpoint file:  "JID_3252.chk"
 ------------------------------
 CID_12708068_JID_3252_neutraal
 ------------------------------
 Charge =  0 Multiplicity = 1

 SCF Done:  E(RB3LYP) =  -567.949597918     A.U. after    1 cycles

  Exact polarizability: 188.432   3.949 116.096  -7.879  -0.611  60.618
 Approx polarizability: 282.015  11.845 239.216 -20.915  -4.478  90.641

                      1                      2                      3
                      A                      A                      A
 Frequencies --     47.6436                70.3336               147.4320
 Red. masses --      4.0189                 3.9599                 4.5686
 Frc consts  --      0.0054                 0.0115                 0.0585
 IR Inten    --      0.4448                 2.6552                 1.9432

                      4                      5                      6
                      A                      A                      A
 Frequencies --    170.3318               223.6662               292.6740
 Red. masses --      4.0731                 1.0381                 3.7024
 Frc consts  --      0.0696                 0.0306                 0.1869
 IR Inten    --      2.0069                 0.1510                 3.2481

                      7                      8                      9
                      A                      A                      A
 Frequencies --    316.9305               329.8441               415.8302
 Red. masses --      4.8796                 7.0503                 2.9722
 Frc consts  --      0.2888                 0.4519                 0.3028
 IR Inten    --      3.7451                 2.3547                 7.0911

                     10                     11                     12
                      A                      A                      A
 Frequencies --    422.5826               430.9163               454.7147
 Red. masses --      1.6286                 5.2839                 5.1069
 Frc consts  --      0.1714                 0.5781                 0.6221
 IR Inten    --    127.1057                13.5703                41.1355

                     13                     14                     15
                      A                      A                      A
 Frequencies --    492.1786               529.1189               633.7499
 Red. masses --      3.7001                 3.0701                 6.4197
 Frc consts  --      0.5281                 0.5064                 1.5191
 IR Inten    --     36.7313                 6.3159                 0.1610

                     16                     17                     18
                      A                      A                      A
 Frequencies --    651.1678               673.2823               708.3747
 Red. masses --      4.6339                 6.8594                 2.2145
 Frc consts  --      1.1577                 1.8320                 0.6547
 IR Inten    --     20.6150                 5.0582                17.3630

                     19                     20                     21
                      A                      A                      A
 Frequencies --    714.4800               749.9439               785.4617
 Red. masses --      3.9257                 4.9636                 1.9602
 Frc consts  --      1.1807                 1.6448                 0.7125
 IR Inten    --     15.4188                 1.4076                27.5610

                     22                     23                     24
                      A                      A                      A
 Frequencies --    806.3911               864.3785               896.6736
 Red. masses --      3.3782                 1.2502                 2.9921
 Frc consts  --      1.2943                 0.5504                 1.4174
 IR Inten    --      2.6593                 0.3007                 0.9398

                     25                     26                     27
                      A                      A                      A
 Frequencies --    937.2097               965.3031               977.0173
 Red. masses --      1.4227                 4.5464                 1.3524
 Frc consts  --      0.7363                 2.4960                 0.7606
 IR Inten    --      4.5503                11.1735                 0.4595

                     28                     29                     30
                      A                      A                      A
 Frequencies --    999.3669              1020.6306              1037.4274
 Red. masses --      1.2542                 6.1934                 3.6703
 Frc consts  --      0.7380                 3.8012                 2.3274
 IR Inten    --      0.4036                 0.1175                11.5238

                     31                     32                     33
                      A                      A                      A
 Frequencies --   1062.9940              1088.3393              1096.7275
 Red. masses --      2.0477                 2.6082                 1.7017
 Frc consts  --      1.3632                 1.8202                 1.2059
 IR Inten    --      9.6214                18.3748                 6.8075

                     34                     35                     36
                      A                      A                      A
 Frequencies --   1114.6843              1155.6687              1193.6873
 Red. masses --      1.6336                 2.6676                 1.1029
 Frc consts  --      1.1959                 2.0991                 0.9259
 IR Inten    --     11.0416                 8.5276                 0.3722

                     37                     38                     39
                      A                      A                      A
 Frequencies --   1211.1930              1214.6679              1292.0924
 Red. masses --      1.2538                 2.3786                 2.5400
 Frc consts  --      1.0837                 2.0677                 2.4984
 IR Inten    --      7.4048                57.9058                14.5172

                     40                     41                     42
                      A                      A                      A
 Frequencies --   1335.9505              1355.3812              1370.8325
 Red. masses --      1.7118                 2.5096                 2.1970
 Frc consts  --      1.8001                 2.7163                 2.4325
 IR Inten    --     55.2976                 0.6417                 1.2674

                     43                     44                     45
                      A                      A                      A
 Frequencies --   1410.2843              1429.3297              1468.9171
 Red. masses --      1.6607                 1.2664                 2.8618
 Frc consts  --      1.9460                 1.5244                 3.6382
 IR Inten    --     11.9968                13.8226                17.2584

                     46                     47                     48
                      A                      A                      A
 Frequencies --   1496.1393              1514.9473              1521.4496
 Red. masses --      1.9617                 1.1158                 1.1244
 Frc consts  --      2.5872                 1.5088                 1.5335
 IR Inten    --      4.9925                18.2620                 7.6562

                     49                     50                     51
                      A                      A                      A
 Frequencies --   1529.2781              1555.7504              1585.1514
 Red. masses --      1.4819                 2.6915                 8.9312
 Frc consts  --      2.0419                 3.8382                13.2221
 IR Inten    --      9.2028                 2.5989                55.2523

                     52                     53                     54
                      A                      A                      A
 Frequencies --   1642.3773              1666.9631              3069.2375
 Red. masses --      5.8147                 5.5687                 1.0348
 Frc consts  --      9.2412                 9.1171                 5.7432
 IR Inten    --      0.5669                 1.9136                12.6038

                     55                     56                     57
                      A                      A                      A
 Frequencies --   3120.7401              3141.7448              3154.1708
 Red. masses --      1.0895                 1.1039                 1.1015
 Frc consts  --      6.2518                 6.4197                 6.4569
 IR Inten    --     22.1361                 9.8011                22.2135

                     58                     59                     60
                      A                      A                      A
 Frequencies --   3183.9302              3194.1521              3206.8424
 Red. masses --      1.0852                 1.0895                 1.0941
 Frc consts  --      6.4817                 6.5489                 6.6289
 IR Inten    --      0.3947                18.7762                34.0404

                     61                     62                     63
                      A                      A                      A
 Frequencies --   3218.7423              3228.2152              3584.2628
 Red. masses --      1.0939                 1.0928                 1.0785
 Frc consts  --      6.6773                 6.7101                 8.1637
 IR Inten    --      8.4194                 3.5304                40.8551

 - Thermochemistry -
 -------------------
 Temperature   298.150 Kelvin.  Pressure   1.00000 Atm.
 Atom     1 has atomic number  6 and mass  12.00000

 Molecular mass:   174.09055 amu.
 Principal axes and moments of inertia in atomic units:
                           1         2         3
     Eigenvalues --   844.683753762.756134128.99072
           X            0.99994   0.00593   0.00929
           Y           -0.00590   0.99998  -0.00316
           Z           -0.00931   0.00311   0.99995
 This molecule is an asymmetric top.
 Rotational symmetry number  1.
 Warning -- assumption of classical behavior for rotation
           may cause significant error
 Rotational temperatures (Kelvin)      0.10254     0.02302     0.02098
 Rotational constants (GHZ):           2.13659     0.47963     0.43709
 Zero-point vibrational energy     485563.6 (Joules/Mol)
                                  116.05249 (Kcal/Mol)
 Warning -- explicit consideration of  14 degrees of freedom as
           vibrations may cause significant error
 Vibrational temperatures:     68.55   101.19   212.12   245.07   321.81
          (Kelvin)            421.09   455.99   474.57   598.29   608.00
                              619.99   654.23   708.14   761.28   911.82
                              936.89   968.70  1019.19  1027.98  1079.00
                             1130.10  1160.22  1243.65  1290.11  1348.44
                             1388.86  1405.71  1437.87  1468.46  1492.63
                             1529.41  1565.88  1577.95  1603.78  1662.75
                             1717.45  1742.64  1747.64  1859.03  1922.13
                             1950.09  1972.32  2029.08  2056.49  2113.44
                             2152.61  2179.67  2189.03  2200.29  2238.38
                             2280.68  2363.01  2398.39  4415.95  4490.05
                             4520.27  4538.15  4580.97  4595.67  4613.93
                             4631.05  4644.68  5156.95

 Zero-point correction=                           0.184941 (Hartree/Particle)
 Thermal correction to Energy=                    0.195437
 Thermal correction to Enthalpy=                  0.196381
 Thermal correction to Gibbs Free Energy=         0.148352
 Sum of electronic and zero-point Energies=           -567.764656
 Sum of electronic and thermal Energies=              -567.754161
 Sum of electronic and thermal Enthalpies=            -567.753217
 Sum of electronic and thermal Free Energies=         -567.801246

                     E (Thermal)             CV                S
                      KCal/Mol        Cal/Mol-Kelvin    Cal/Mol-Kelvin
 Total                  122.638             41.622            101.085
 Electronic               0.000              0.000              0.000
 Translational            0.889              2.981             41.371
 Rotational               0.889              2.981             30.951
 Vibrational            120.861             35.661             28.763
 Vibration     1          0.595              1.978              4.913
 Vibration     2          0.598              1.968              4.144
 Vibration     3          0.617              1.905              2.705
 Vibration     4          0.625              1.879              2.432
 Vibration     5          0.649              1.805              1.929
 Vibration     6          0.688              1.687              1.458
 Vibration     7          0.704              1.641              1.326
 Vibration     8          0.713              1.616              1.261
 Vibration     9          0.779              1.436              0.906
 Vibration    10          0.785              1.421              0.883
 Vibration    11          0.792              1.403              0.856
 Vibration    12          0.813              1.350              0.782
 Vibration    13          0.848              1.267              0.678
 Vibration    14          0.884              1.186              0.589

 Optimization completed.
    -- Stationary point found.

 1\1\GINC-NODE103\Freq\RB3LYP\6-31G(d)\C9H10N4\VSC10255\09-Dec-2020\0\\
 #N Geom=AllCheck Guess=TCheck SCRF=Check GenChk RB3LYP/6-31G(d) Freq\\
 CID_12708068_JID_3252_neutraal\\0,1\C,0.7720191339,0.2888332,-0.446246
 3777\C,0.8900261468,1.2082030345,0.7689733872\N,-0.3842398397,1.798568
 1094,1.1338298106\N,-0.8887285237,2.792507965,0.3907575741\C,-0.050152
 5331,3.2787333173,-0.5064603552\N,1.3228865023,3.2234037999,-0.2495596
 913\N,1.8204231989,2.3436484683,0.4965634084\C,-0.5261871449,4.1622073
 338,-1.576903198\C,0.3706702657,4.9649194878,-2.2987755918\C,-0.092713

 Normal termination of Gaussian 16 at Wed Dec  9 22:36:44 2020.

 ----------------------------------------------------------------------
 # B3LYP/6-311++G(d,p) empiricaldispersion=gd3bj scf=xqc pop=npa geom=c
 heck
 ----------------------------------------------------------------------

 --------------------------------------
 CID_12708068_JID_3252_Energie_neutraal
 --------------------------------------
 Structure from the checkpoint file:  "JID_3252.chk"
 Charge =  0 Multiplicity = 1

 SCF Done:  E(RB3LYP) =  -568.099926606     A.U. after   17 cycles
 Normal termination of Gaussian 16 at Wed Dec  9 22:39:35 2020.

 ----------------------------------------------------------------------
 # B3LYP/6-311++G(d,p) empiricaldispersion=gd3bj scf=xqc pop=npa geom=c
 heck
 ----------------------------------------------------------------------

 ------------------------------------
 CID_12708068_JID_3252_Energie_kation
 ------------------------------------
 Structure from the checkpoint file:  "JID_3252.chk"
 Charge =  1 Multiplicity = 2

 SCF Done:  E(UB3LYP) =  -567.817166155     A.U. after   26 cycles
 Normal termination of Gaussian 16 at Wed Dec  9 22:46:18 2020.
 Gaussian 16:  ES64L-G16RevA.03 25-Dec-2016

 -----------------------------------
 CID_12708068_JID_3252_Energie_anion
 -----------------------------------
 Structure from the checkpoint file:  "JID_3252.chk"
 Charge = -1 Multiplicity = 2

                         Standard orientation:
 ---------------------------------------------------------------------
 Center     Atomic      Atomic             Coordinates (Angstroms)
 Number     Number       Type             X           Y           Z
 ---------------------------------------------------------------------
      1          6           0        2.834035    0.059483    1.611120
      2          6           0        3.000613   -0.052230    0.095964
      3          7           0        2.390526    1.062223   -0.604887
      4          7           0        1.057323    1.117937   -0.723407
      5          6           0        0.432922    0.015025   -0.351474
      6          7           0        1.096049   -1.210154   -0.467647
      7          7           0        2.349164   -1.289487   -0.427381
      8          6           0       -1.020623    0.007138   -0.151158
      9          6           0       -1.735381   -1.200283   -0.118666
     10          6           0       -3.111433   -1.193507    0.094730
     11          6           0       -3.792552    0.012333    0.272783
     12          6           0       -3.085126    1.216273    0.242513
     13          6           0       -1.708064    1.215738    0.039956
     14          1           0        1.781522    0.136597    1.895819
     15          1           0        3.359975    0.945413    1.979367
     16          1           0        3.255195   -0.831109    2.087853
     17          1           0        4.057954   -0.094817   -0.172165
     18          1           0        2.889037    1.548451   -1.340526
     19          1           0       -1.203471   -2.132357   -0.273049
     20          1           0       -3.655149   -2.133861    0.116140
     21          1           0       -4.866189    0.013967    0.438525
     22          1           0       -3.606999    2.158277    0.386417
     23          1           0       -1.149646    2.145991    0.030268
 ---------------------------------------------------------------------

 SCF Done:  E(UB3LYP) =  -568.119332623     A.U. after   28 cycles

 The electronic state is 2-A.
 Alpha  occ. eigenvalues --  -14.19402 -14.15922 -14.14973 -14.14730 -10.08001
 Alpha  occ. eigenvalues --  -10.04379 -10.04352 -10.04153 -10.03879 -10.03855
 Alpha  occ. eigenvalues --  -10.03107 -10.03032 -10.02873  -0.88540  -0.80746
 Alpha  occ. eigenvalues --   -0.72470  -0.69049  -0.62157  -0.61191  -0.58948
 Alpha  occ. eigenvalues --   -0.53323  -0.50701  -0.46848  -0.45921  -0.40379
 Alpha  occ. eigenvalues --   -0.37652  -0.37123  -0.34488  -0.32743  -0.30971
 Alpha  occ. eigenvalues --   -0.30313  -0.28852  -0.28164  -0.26253  -0.24659
 Alpha  occ. eigenvalues --   -0.24333  -0.22559  -0.21243  -0.20944  -0.18609
 Alpha  occ. eigenvalues --   -0.17360  -0.15194  -0.12619  -0.12268  -0.07361
 Alpha  occ. eigenvalues --   -0.03859   0.04440
 Alpha virt. eigenvalues --    0.08539   0.09094   0.10191   0.10657   0.11303
 Alpha virt. eigenvalues --    0.11473   0.12063   0.12256   0.13240   0.14272
 Alpha virt. eigenvalues --    0.14782   0.15087   0.16541   0.17808   0.18209

  Beta  occ. eigenvalues --  -14.18998 -14.15643 -14.14154 -14.14053 -10.08051
  Beta  occ. eigenvalues --  -10.04408 -10.04396 -10.04130 -10.03852 -10.03805
  Beta  occ. eigenvalues --  -10.03103 -10.03041 -10.02821  -0.87632  -0.79667
  Beta  occ. eigenvalues --   -0.72339  -0.68501  -0.62054  -0.61124  -0.58606
  Beta  occ. eigenvalues --   -0.52239  -0.50507  -0.46781  -0.45640  -0.40166
  Beta  occ. eigenvalues --   -0.37438  -0.36746  -0.34223  -0.32334  -0.30743
  Beta  occ. eigenvalues --   -0.29829  -0.28824  -0.27847  -0.26106  -0.24331
  Beta  occ. eigenvalues --   -0.24207  -0.22099  -0.20964  -0.20600  -0.17024
  Beta  occ. eigenvalues --   -0.14978  -0.14283  -0.12209  -0.11812  -0.05090
  Beta  occ. eigenvalues --   -0.03041
  Beta virt. eigenvalues --    0.08525   0.09088   0.10160   0.10771   0.11261
  Beta virt. eigenvalues --    0.11462   0.11873   0.12243   0.13216   0.13902
  Beta virt. eigenvalues --    0.14537   0.14792   0.15153   0.16544   0.17827

 Mulliken charges and spin densities:
               1          2
     1  C   -0.282401   0.015400
     2  C   -0.646546  -0.044513
     3  N   -0.187908   0.127622
     4  N   -0.020320   0.417363
     5  C   -1.350450  -0.136455
     6  N   -0.101776   0.129370
     7  N    0.084463   0.300626
     8  C    1.734714   0.036039
     9  C    0.013061   0.033342
    10  C   -0.468068  -0.012221
    11  C   -0.412967   0.050337
    12  C   -0.357172  -0.011915
    13  C   -0.479873   0.091721
    14  H    0.145042  -0.002393
    15  H    0.095408  -0.000684
    16  H    0.117333   0.001068
    17  H    0.124756  -0.002662
    18  H    0.262239  -0.006171
    19  H    0.206652   0.020923
    20  H    0.115416  -0.002232
    21  H    0.103325  -0.002932
    22  H    0.112021   0.001011
    23  H    0.193053  -0.002646
 Sum of Mulliken charges =  -1.00000   1.00000

 Dipole moment (field-independent basis, Debye):
    X=             -1.0021    Y=              2.0975    Z=              1.5525  Tot=              2.7953
 Quadrupole moment (field-independent basis, Debye-Ang):
   XX=           -100.6704   YY=            -92.5505   ZZ=            -86.9326
   XY=              7.6635   XZ=              0.5615   YZ=             -2.0759

 Summary of Natural Population Analysis:

                                       Natural Population
                Natural  -----------------------------------------------
    Atom  No    Charge         Core      Valence    Rydberg      Total
 -----------------------------------------------------------------------
      C    1   -0.29512      0.99964     2.28957    0.00591     3.29512
      C    2    0.03388      0.99964     1.95356    0.01293     2.96612
      N    3   -0.15866      0.99971     2.63857    0.02038     3.65866
      N    4   -0.02428      0.99966     2.50735    0.01727     3.52428
      C    5    0.08202      0.99956     1.90170    0.01672     2.91798
      N    6   -0.09022      0.99970     2.57209    0.01843     3.59022
      N    7   -0.03634      0.99977     2.51361    0.02295     3.53634
      C    8   -0.02108      0.99949     2.01150    0.01009     3.02108
      C    9   -0.10196      0.99954     2.09372    0.00870     3.10196
      C   10   -0.10618      0.99957     2.09722    0.00938     3.10618
      C   11   -0.12090      0.99957     2.11082    0.01050     3.12090
      C   12   -0.11244      0.99957     2.10351    0.00935     3.11244
      C   13   -0.09227      0.99954     2.08404    0.00870     3.09227
      H   14    0.10701      0.00000     0.39210    0.00089     0.39299
      H   15    0.09084      0.00000     0.40769    0.00147     0.40916
      H   16    0.09575      0.00000     0.40323    0.00102     0.40425
      H   17    0.08481      0.00000     0.41341    0.00178     0.41519
      H   18    0.17678      0.00000     0.32188    0.00133     0.32322
      H   19    0.11101      0.00000     0.38768    0.00131     0.38899
      H   20    0.09044      0.00000     0.40852    0.00105     0.40956
      H   21    0.08933      0.00000     0.40961    0.00106     0.41067
      H   22    0.09052      0.00000     0.40844    0.00104     0.40948
      H   23    0.10704      0.00000     0.39179    0.00116     0.39296
 =======================================================================
   * Total *   -0.00000     12.99497    32.82161    0.18343    46.00000

 Normal termination of Gaussian 16 at Wed Dec  9 22:53:07 2020.
