 Gaussian 16, Revision A.03,

 -----------------------------------------------------------
 # opt freq B3LYP/6-31G(d) empiricaldispersion=gd3bj scf=xqc
 -----------------------------------------------------------

 -------------------------------
 CID_113651018_JID_8225_neutraal
 -------------------------------
 Symbolic Z-matrix:
 Charge =  0 Multiplicity = 1

 SCF Done:  E(RB3LYP) =  -1137.04877154     A.U. after   15 cycles
 SCF Done:  E(RB3LYP) =  -1137.05359664     A.U. after   13 cycles
 SCF Done:  E(RB3LYP) =  -1137.05397184     A.U. after   12 cycles
 SCF Done:  E(RB3LYP) =  -1137.05425884     A.U. after   12 cycles
 SCF Done:  E(RB3LYP) =  -1137.05433644     A.U. after   11 cycles
 SCF Done:  E(RB3LYP) =  -1137.05434389     A.U. after   10 cycles
 SCF Done:  E(RB3LYP) =  -1137.05434777     A.U. after   10 cycles
 SCF Done:  E(RB3LYP) =  -1137.05434953     A.U. after    9 cycles
 SCF Done:  E(RB3LYP) =  -1137.05435023     A.U. after    9 cycles
 SCF Done:  E(RB3LYP) =  -1137.05435069     A.U. after    8 cycles
 SCF Done:  E(RB3LYP) =  -1137.05435087     A.U. after    8 cycles
 SCF Done:  E(RB3LYP) =  -1137.05435099     A.U. after    8 cycles
 SCF Done:  E(RB3LYP) =  -1137.05435103     A.U. after    8 cycles
 SCF Done:  E(RB3LYP) =  -1137.05435105     A.U. after    7 cycles
 Optimization completed.
    -- Stationary point found.
 Normal termination of Gaussian 16 at Fri Dec 11 19:33:52 2020.

 --------------------------------------------------------------------
 #N Geom=AllCheck Guess=TCheck SCRF=Check GenChk RB3LYP/6-31G(d) Freq
 --------------------------------------------------------------------

 Structure from the checkpoint file:  "JID_8225.chk"
 -------------------------------
 CID_113651018_JID_8225_neutraal
 -------------------------------
 Charge =  0 Multiplicity = 1

 SCF Done:  E(RB3LYP) =  -1137.05435105     A.U. after    1 cycles

  Exact polarizability: 202.309 -16.064 178.224 -22.280 -21.441 107.334
 Approx polarizability: 301.207 -32.176 312.349 -50.746 -52.852 183.579

                      1                      2                      3
                      A                      A                      A
 Frequencies --     12.7115                27.9143                36.8251
 Red. masses --      4.8796                 7.7807                 5.1640
 Frc consts  --      0.0005                 0.0036                 0.0041
 IR Inten    --      0.0801                 0.1682                 1.2836

                      4                      5                      6
                      A                      A                      A
 Frequencies --     65.8557                79.0323               132.2221
 Red. masses --      4.5849                 5.2501                 7.0501
 Frc consts  --      0.0117                 0.0193                 0.0726
 IR Inten    --      0.3243                 1.4901                 2.2375

                      7                      8                      9
                      A                      A                      A
 Frequencies --    160.7413               191.8280               226.0684
 Red. masses --      5.4551                 3.2780                 5.5147
 Frc consts  --      0.0830                 0.0711                 0.1661
 IR Inten    --      0.4638                 1.1956                 1.0746

                     10                     11                     12
                      A                      A                      A
 Frequencies --    245.7331               270.5696               314.1721
 Red. masses --      5.7531                 2.2557                 1.4063
 Frc consts  --      0.2047                 0.0973                 0.0818
 IR Inten    --      1.5494                 7.5010                32.0090

                     13                     14                     15
                      A                      A                      A
 Frequencies --    358.2823               375.6146               416.8667
 Red. masses --      2.3555                 3.4793                 3.1937
 Frc consts  --      0.1782                 0.2892                 0.3270
 IR Inten    --      1.8496                 2.1714                 1.6775

                     16                     17                     18
                      A                      A                      A
 Frequencies --    417.6254               449.5455               475.7763
 Red. masses --      4.6429                 6.2925                 4.3379
 Frc consts  --      0.4771                 0.7492                 0.5785
 IR Inten    --      7.0910                11.3361                 3.1179

                     19                     20                     21
                      A                      A                      A
 Frequencies --    517.6050               550.1434               568.0442
 Red. masses --      4.1488                 3.4554                12.0989
 Frc consts  --      0.6549                 0.6162                 2.3002
 IR Inten    --      3.5583                13.6234                 2.9856

                     22                     23                     24
                      A                      A                      A
 Frequencies --    592.8466               638.1244               643.5826
 Red. masses --      3.4760                 6.2197                 5.8165
 Frc consts  --      0.7198                 1.4922                 1.4195
 IR Inten    --     13.3254                 0.1917                 2.4259

                     25                     26                     27
                      A                      A                      A
 Frequencies --    654.9164               666.6088               682.2073
 Red. masses --      7.0786                 5.4292                10.5727
 Frc consts  --      1.7888                 1.4214                 2.8992
 IR Inten    --      5.8965                 9.2917                 2.5608

                     28                     29                     30
                      A                      A                      A
 Frequencies --    715.5340               766.4909               780.8525
 Red. masses --      1.8374                 1.8448                 3.9042
 Frc consts  --      0.5543                 0.6386                 1.4026
 IR Inten    --     29.2372                19.7875                 6.8673

                     31                     32                     33
                      A                      A                      A
 Frequencies --    782.0977               795.2853               855.6193
 Red. masses --      1.2969                 4.6646                 1.7246
 Frc consts  --      0.4674                 1.7383                 0.7439
 IR Inten    --     15.2995                11.8296                21.1899

                     34                     35                     36
                      A                      A                      A
 Frequencies --    861.0418               888.4685               925.1568
 Red. masses --      1.3432                 1.7453                 1.4294
 Frc consts  --      0.5868                 0.8117                 0.7208
 IR Inten    --     16.6853               251.0599                 5.2382

                     37                     38                     39
                      A                      A                      A
 Frequencies --    957.2161               962.9852               967.0034
 Red. masses --      4.3698                 2.4760                 1.3820
 Frc consts  --      2.3590                 1.3528                 0.7614
 IR Inten    --     16.5056                 7.0722                 1.6506

                     40                     41                     42
                      A                      A                      A
 Frequencies --    995.3976               998.4391              1006.9739
 Red. masses --      1.2555                 5.1616                 2.3544
 Frc consts  --      0.7329                 3.0316                 1.4066
 IR Inten    --      0.9808                17.6932                 5.1110

                     43                     44                     45
                      A                      A                      A
 Frequencies --   1022.7683              1053.0065              1062.4544
 Red. masses --      6.2046                 2.3188                 2.1842
 Frc consts  --      3.8240                 1.5149                 1.4526
 IR Inten    --      0.4583                 4.1392                 3.7503

                     46                     47                     48
                      A                      A                      A
 Frequencies --   1097.3863              1129.3502              1133.2435
 Red. masses --      1.9472                 1.8987                 2.7707
 Frc consts  --      1.3816                 1.4268                 2.0965
 IR Inten    --     14.0963                 3.2145                29.1528

                     49                     50                     51
                      A                      A                      A
 Frequencies --   1165.7847              1187.0562              1194.2794
 Red. masses --      2.1767                 1.4531                 1.0976
 Frc consts  --      1.7430                 1.2064                 0.9223
 IR Inten    --      3.2421                 2.4697                 0.0401

                     52                     53                     54
                      A                      A                      A
 Frequencies --   1210.4589              1217.1455              1227.7964
 Red. masses --      2.1510                 1.1594                 1.8706
 Frc consts  --      1.8569                 1.0120                 1.6615
 IR Inten    --     14.0665                 0.4421                12.8031

                     55                     56                     57
                      A                      A                      A
 Frequencies --   1238.4799              1297.5782              1328.1418
 Red. masses --      2.3267                 1.3801                 8.9567
 Frc consts  --      2.1027                 1.3691                 9.3087
 IR Inten    --      0.0153                11.1689                 0.9498

                     58                     59                     60
                      A                      A                      A
 Frequencies --   1356.3953              1357.3245              1369.6279
 Red. masses --      1.3733                 2.5757                 1.8055
 Frc consts  --      1.4887                 2.7958                 1.9955
 IR Inten    --     27.8277                 0.0712                 0.0774

                     61                     62                     63
                      A                      A                      A
 Frequencies --   1385.1839              1394.4180              1422.2544
 Red. masses --      1.3631                 1.3439                 1.4702
 Frc consts  --      1.5410                 1.5396                 1.7522
 IR Inten    --      0.8339                 9.5538                 5.7923

                     64                     65                     66
                      A                      A                      A
 Frequencies --   1426.5032              1478.6849              1504.4206
 Red. masses --      6.9769                 5.2865                 2.1778
 Frc consts  --      8.3649                 6.8103                 2.9040
 IR Inten    --      2.0624                 3.1491                 7.4576

                     67                     68                     69
                      A                      A                      A
 Frequencies --   1515.4061              1517.5110              1522.5608
 Red. masses --      1.4143                 3.0712                 1.1072
 Frc consts  --      1.9136                 4.1669                 1.5123
 IR Inten    --     22.4650               120.1496                 4.1907

                     70                     71                     72
                      A                      A                      A
 Frequencies --   1549.8495              1599.2127              1647.3061
 Red. masses --      2.2237                10.1054                 5.4876
 Frc consts  --      3.1470                15.2270                 8.7736
 IR Inten    --      9.8857                35.7398                 0.7583

                     73                     74                     75
                      A                      A                      A
 Frequencies --   1668.9726              1697.0531              3030.3436
 Red. masses --      5.5792                 1.0923                 1.0687
 Frc consts  --      9.1563                 1.8534                 5.7821
 IR Inten    --      3.2956                24.0822                29.3983

                     76                     77                     78
                      A                      A                      A
 Frequencies --   3054.9612              3088.5830              3098.5247
 Red. masses --      1.0604                 1.1018                 1.0859
 Frc consts  --      5.8309                 6.1927                 6.1423
 IR Inten    --     29.0273                11.7666                 6.3143

                     79                     80                     81
                      A                      A                      A
 Frequencies --   3111.1622              3173.1502              3184.9040
 Red. masses --      1.0952                 1.0871                 1.0860
 Frc consts  --      6.2459                 6.4494                 6.4904
 IR Inten    --     30.4172                 8.8284                 0.5701

                     82                     83                     84
                      A                      A                      A
 Frequencies --   3194.2249              3202.5057              3212.1609
 Red. masses --      1.0903                 1.0936                 1.0979
 Frc consts  --      6.5541                 6.6085                 6.6746
 IR Inten    --     14.3094                37.5938                16.4736

                     85                     86                     87
                      A                      A                      A
 Frequencies --   3309.5976              3471.7508              3561.2335
 Red. masses --      1.0989                 1.0494                 1.0933
 Frc consts  --      7.0921                 7.4521                 8.1695
 IR Inten    --      0.7343                 0.8200                 0.6615

 - Thermochemistry -
 -------------------
 Temperature   298.150 Kelvin.  Pressure   1.00000 Atm.
 Atom     1 has atomic number  6 and mass  12.00000

 Molecular mass:   259.08917 amu.
 Principal axes and moments of inertia in atomic units:
                           1         2         3
     Eigenvalues --  2499.890177937.106409326.53729
           X            0.99999   0.00170   0.00331
           Y           -0.00167   0.99997  -0.00755
           Z           -0.00332   0.00754   0.99997
 This molecule is an asymmetric top.
 Rotational symmetry number  1.
 Warning -- assumption of classical behavior for rotation
           may cause significant error
 Rotational temperatures (Kelvin)      0.03465     0.01091     0.00929
 Rotational constants (GHZ):           0.72193     0.22738     0.19351
 Zero-point vibrational energy     644193.5 (Joules/Mol)
                                  153.96594 (Kcal/Mol)
 Warning -- explicit consideration of  22 degrees of freedom as
           vibrations may cause significant error
 Vibrational temperatures:     18.29    40.16    52.98    94.75   113.71
          (Kelvin)            190.24   231.27   276.00   325.26   353.56
                              389.29   452.02   515.49   540.43   599.78
                              600.87   646.80   684.54   744.72   791.53
                              817.29   852.97   918.12   925.97   942.28
                              959.10   981.54  1029.49  1102.81  1123.47
                             1125.26  1144.24  1231.05  1238.85  1278.31
                             1331.09  1377.22  1385.52  1391.30  1432.16
                             1436.53  1448.81  1471.54  1515.04  1528.63
                             1578.89  1624.88  1630.48  1677.30  1707.91
                             1718.30  1741.58  1751.20  1766.53  1781.90
                             1866.93  1910.90  1951.55  1952.89  1970.59
                             1992.97  2006.26  2046.31  2052.42  2127.50
                             2164.53  2180.33  2183.36  2190.63  2229.89
                             2300.91  2370.11  2401.28  2441.68  4359.99
                             4395.41  4443.78  4458.09  4476.27  4565.46
                             4582.37  4595.78  4607.69  4621.58  4761.77
                             4995.08  5123.82

 Zero-point correction=                           0.245360 (Hartree/Particle)
 Thermal correction to Energy=                    0.260662
 Thermal correction to Enthalpy=                  0.261606
 Thermal correction to Gibbs Free Energy=         0.199684
 Sum of electronic and zero-point Energies=          -1136.808991
 Sum of electronic and thermal Energies=             -1136.793689
 Sum of electronic and thermal Enthalpies=           -1136.792745
 Sum of electronic and thermal Free Energies=        -1136.854667

                     E (Thermal)             CV                S
                      KCal/Mol        Cal/Mol-Kelvin    Cal/Mol-Kelvin
 Total                  163.568             59.013            130.327
 Electronic               0.000              0.000              0.000
 Translational            0.889              2.981             42.556
 Rotational               0.889              2.981             33.581
 Vibrational            161.790             53.051             54.190
 Vibration     1          0.593              1.987              7.534
 Vibration     2          0.593              1.984              5.972
 Vibration     3          0.594              1.982              5.423
 Vibration     4          0.597              1.971              4.274
 Vibration     5          0.600              1.963              3.915
 Vibration     6          0.612              1.921              2.913
 Vibration     7          0.622              1.890              2.541
 Vibration     8          0.634              1.851              2.210
 Vibration     9          0.650              1.801              1.910
 Vibration    10          0.660              1.770              1.761
 Vibration    11          0.674              1.727              1.593
 Vibration    12          0.702              1.647              1.340
 Vibration    13          0.733              1.558              1.130
 Vibration    14          0.746              1.522              1.057
 Vibration    15          0.780              1.434              0.903
 Vibration    16          0.781              1.432              0.900
 Vibration    17          0.808              1.362              0.797
 Vibration    18          0.832              1.304              0.722
 Vibration    19          0.873              1.211              0.616
 Vibration    20          0.905              1.139              0.544
 Vibration    21          0.924              1.100              0.508
 Vibration    22          0.950              1.047              0.462

 Optimization completed.
    -- Stationary point found.
 Normal termination of Gaussian 16 at Fri Dec 11 19:44:46 2020.

 ----------------------------------------------------------------------
 # B3LYP/6-311++G(d,p) empiricaldispersion=gd3bj scf=xqc pop=npa geom=c
 heck
 ----------------------------------------------------------------------

 ---------------------------------------
 CID_113651018_JID_8225_Energie_neutraal
 ---------------------------------------
 Structure from the checkpoint file:  "JID_8225.chk"
 Charge =  0 Multiplicity = 1

 SCF Done:  E(RB3LYP) =  -1137.27850752     A.U. after   16 cycles
 Normal termination of Gaussian 16 at Fri Dec 11 19:49:27 2020.

 ----------------------------------------------------------------------
 # B3LYP/6-311++G(d,p) empiricaldispersion=gd3bj scf=xqc pop=npa geom=c
 heck
 ----------------------------------------------------------------------

 -------------------------------------
 CID_113651018_JID_8225_Energie_kation
 -------------------------------------
 Structure from the checkpoint file:  "JID_8225.chk"
 Charge =  1 Multiplicity = 2

 SCF Done:  E(UB3LYP) =  -1136.96301272     A.U. after   33 cycles
 SCF Done:  E(UB3LYP) =  -1136.96301293     a.u. after    2 cycles
 Normal termination of Gaussian 16 at Fri Dec 11 20:16:46 2020.
 Gaussian 16:  ES64L-G16RevA.03 25-Dec-2016

 ----------------------------------------------------------------------
 # B3LYP/6-311++G(d,p) empiricaldispersion=gd3bj scf=xqc pop=npa geom=c
 heck
 ----------------------------------------------------------------------

 ------------------------------------
 CID_113651018_JID_8225_Energie_anion
 ------------------------------------
 Structure from the checkpoint file:  "JID_8225.chk"
 Charge = -1 Multiplicity = 2

                         Standard orientation:
 ---------------------------------------------------------------------
 Center     Atomic      Atomic             Coordinates (Angstroms)
 Number     Number       Type             X           Y           Z
 ---------------------------------------------------------------------
      1          6           0       -4.374569   -1.754198    0.452587
      2          6           0       -3.052867   -2.158175    0.265739
      3          6           0       -2.134226   -1.295758   -0.334635
      4          6           0       -2.520777   -0.017976   -0.755308
      5          6           0       -3.851074    0.376410   -0.561816
      6          6           0       -4.772060   -0.482125    0.035976
      7          6           0       -1.522629    0.941162   -1.364800
      8          6           0       -1.035667    2.008421   -0.366809
      9          6           0       -0.300454    1.434569    0.850947
     10          6           0        0.923786    0.642090    0.452810
     11          7           0        1.154376   -0.561033    0.874111
     12          7           0        2.369542   -0.970797    0.396429
     13          6           0        3.137446   -2.101424    0.487047
     14          7           0        4.246727   -1.923236   -0.195810
     15          7           0        4.234056   -0.648051   -0.762387
     16          6           0        3.102154   -0.109730   -0.388266
     17         16           0        2.198167    1.375973   -0.579688
     18          7           0        0.000842    2.510298    1.798039
     19          1           0       -5.091203   -2.425362    0.917287
     20          1           0       -2.734108   -3.146380    0.585492
     21          1           0       -1.104212   -1.613578   -0.469354
     22          1           0       -4.167148    1.364952   -0.887972
     23          1           0       -5.800720   -0.160411    0.173334
     24          1           0       -0.663785    0.385375   -1.759356
     25          1           0       -1.976378    1.457239   -2.219073
     26          1           0       -0.380328    2.721928   -0.887158
     27          1           0       -1.884471    2.582711    0.018003
     28          1           0       -0.958123    0.720519    1.356380
     29          1           0        2.851475   -2.982745    1.039545
     30          1           0        0.476254    2.136658    2.617435
     31          1           0        0.628871    3.193660    1.376936
 ---------------------------------------------------------------------

 SCF Done:  E(UB3LYP) =  -1137.28064320     A.U. after   33 cycles
 SCF Done:  E(UB3LYP) =  -1137.28064320     a.u. after    1 cycles

 The electronic state is 2-A.
 Alpha  occ. eigenvalues --  -88.76746 -14.29449 -14.21871 -14.21198 -14.21092
 Alpha  occ. eigenvalues --  -14.19804 -10.13923 -10.11760 -10.10747 -10.09826
 Alpha  occ. eigenvalues --  -10.08838 -10.08390 -10.08276 -10.08200 -10.08182
 Alpha  occ. eigenvalues --  -10.07996 -10.07665 -10.07658  -7.85356  -5.81696
 Alpha  occ. eigenvalues --   -5.81341  -5.80848  -0.97421  -0.88130  -0.79923
 Alpha  occ. eigenvalues --   -0.76748  -0.74006  -0.71266  -0.70060  -0.66090
 Alpha  occ. eigenvalues --   -0.65455  -0.64220  -0.58529  -0.53970  -0.51495
 Alpha  occ. eigenvalues --   -0.51469  -0.49653  -0.47901  -0.46342  -0.42076
 Alpha  occ. eigenvalues --   -0.40627  -0.38174  -0.37945  -0.37339  -0.37094
 Alpha  occ. eigenvalues --   -0.36532  -0.35479  -0.34067  -0.33023  -0.31600
 Alpha  occ. eigenvalues --   -0.30650  -0.29239  -0.28509  -0.27080  -0.26405
 Alpha  occ. eigenvalues --   -0.25632  -0.25215  -0.24301  -0.23561  -0.21545
 Alpha  occ. eigenvalues --   -0.21356  -0.18843  -0.16495  -0.16336  -0.15546
 Alpha  occ. eigenvalues --   -0.15117  -0.14293  -0.12926   0.04230
 Alpha virt. eigenvalues --    0.05656   0.06866   0.07473   0.07529   0.07921
 Alpha virt. eigenvalues --    0.08389   0.08891   0.09745   0.10311   0.10534
 Alpha virt. eigenvalues --    0.10953   0.11685   0.11942   0.12638   0.13015

  Beta  occ. eigenvalues --  -88.76719 -14.29514 -14.21480 -14.21138 -14.21119
  Beta  occ. eigenvalues --  -14.19720 -10.13833 -10.11682 -10.10783 -10.09260
  Beta  occ. eigenvalues --  -10.08830 -10.08376 -10.08272 -10.08198 -10.08167
  Beta  occ. eigenvalues --  -10.07993 -10.07649 -10.07643  -7.85330  -5.81689
  Beta  occ. eigenvalues --   -5.81340  -5.80740  -0.97261  -0.87777  -0.79709
  Beta  occ. eigenvalues --   -0.76723  -0.73782  -0.70965  -0.69995  -0.65842
  Beta  occ. eigenvalues --   -0.65432  -0.64159  -0.58359  -0.53712  -0.51461
  Beta  occ. eigenvalues --   -0.51358  -0.49555  -0.47757  -0.46146  -0.42039
  Beta  occ. eigenvalues --   -0.40500  -0.37874  -0.37726  -0.37128  -0.36939
  Beta  occ. eigenvalues --   -0.36434  -0.35371  -0.33955  -0.32987  -0.31398
  Beta  occ. eigenvalues --   -0.30614  -0.29046  -0.28279  -0.26615  -0.26217
  Beta  occ. eigenvalues --   -0.25508  -0.24692  -0.24247  -0.23496  -0.21219
  Beta  occ. eigenvalues --   -0.21002  -0.18528  -0.16374  -0.15772  -0.15486
  Beta  occ. eigenvalues --   -0.15005  -0.13433  -0.12200
  Beta virt. eigenvalues --    0.06187   0.06969   0.07469   0.07707   0.07964
  Beta virt. eigenvalues --    0.08482   0.08995   0.09765   0.10169   0.10457
  Beta virt. eigenvalues --    0.10578   0.11058   0.11655   0.12017   0.12750

 Mulliken charges and spin densities:
               1          2
     1  C    0.589635  -0.915546
     2  C   -0.425169   0.038106
     3  C   -0.547202   0.214740
     4  C    0.757614   0.222565
     5  C   -0.805838   0.648340
     6  C    0.395005  -0.737272
     7  C   -0.016477  -0.462330
     8  C   -0.162309  -0.100108
     9  C   -0.561336  -0.364994
    10  C   -0.107064   0.517776
    11  N    0.011070   0.158146
    12  N    0.056925   0.004811
    13  C    0.023130   0.075721
    14  N   -0.123431   0.023746
    15  N   -0.109584  -0.008204
    16  C   -0.447623   0.087595
    17  S    0.089432  -0.137059
    18  N   -0.237229   0.018403
    19  H   -0.303508   0.450926
    20  H    0.003450   0.172195
    21  H    0.180792  -0.005095
    22  H    0.013278   0.126264
    23  H   -0.416280   0.586911
    24  H    0.041486   0.120216
    25  H    0.135991   0.049552
    26  H    0.061854   0.061952
    27  H    0.161060   0.010691
    28  H    0.276641  -0.020947
    29  H    0.138651   0.020747
    30  H    0.153399   0.083249
    31  H    0.173637   0.058902
 Sum of Mulliken charges =  -1.00000   1.00000

 Dipole moment (field-independent basis, Debye):
    X=             -1.8363    Y=              2.2687    Z=             -0.0312  Tot=              2.9189
 Quadrupole moment (field-independent basis, Debye-Ang):
   XX=           -218.1878   YY=           -136.9010   ZZ=           -132.8722
   XY=              4.0686   XZ=             13.0634   YZ=             -5.4451

 Summary of Natural Population Analysis:

                                       Natural Population
                Natural  -----------------------------------------------
    Atom  No    Charge         Core      Valence    Rydberg      Total
 -----------------------------------------------------------------------
      C    1   -0.10721      0.99956     2.09767    0.00998     3.10721
      C    2   -0.10038      0.99957     2.09016    0.01065     3.10038
      C    3   -0.09912      0.99951     2.09094    0.00868     3.09912
      C    4   -0.01426      0.99950     2.00441    0.01034     3.01426
      C    5   -0.10345      0.99951     2.09456    0.00938     3.10345
      C    6   -0.10115      0.99957     2.09112    0.01046     3.10115
      C    7   -0.19929      0.99960     2.19085    0.00884     3.19929
      C    8   -0.17973      0.99960     2.17164    0.00848     3.17973
      C    9   -0.04753      0.99952     2.03352    0.01449     3.04753
      C   10    0.13445      0.99959     1.84758    0.01839     2.86555
      N   11   -0.11082      0.99961     2.59780    0.01342     3.61082
      N   12   -0.13511      0.99956     2.62258    0.01297     3.63511
      C   13    0.09229      0.99965     1.88969    0.01837     2.90771
      N   14   -0.15477      0.99973     2.64158    0.01346     3.65477
      N   15   -0.19208      0.99965     2.67546    0.01697     3.69208
      C   16    0.10608      0.99955     1.87394    0.02044     2.89392
      S   17    0.15218      4.99944     2.82955    0.01882     7.84782
      N   18   -0.40776      0.99977     2.89875    0.00924     3.90776
      H   19    0.10037      0.00000     0.39859    0.00104     0.39963
      H   20    0.10025      0.00000     0.39888    0.00087     0.39975
      H   21    0.10948      0.00000     0.38878    0.00174     0.39052
      H   22    0.09743      0.00000     0.40116    0.00140     0.40257
      H   23    0.10047      0.00000     0.39836    0.00117     0.39953
      H   24    0.10653      0.00000     0.39171    0.00176     0.39347
      H   25    0.10056      0.00000     0.39851    0.00094     0.39944
      H   26    0.09591      0.00000     0.40301    0.00108     0.40409
      H   27    0.10222      0.00000     0.39641    0.00137     0.39778
      H   28    0.10941      0.00000     0.38829    0.00230     0.39059
      H   29    0.09662      0.00000     0.40190    0.00148     0.40338
      H   30    0.17735      0.00000     0.32105    0.00160     0.32265
      H   31    0.17107      0.00000     0.32721    0.00173     0.32893
 =======================================================================
   * Total *    0.00000     21.99249    45.75565    0.25186    68.00000

 Normal termination of Gaussian 16 at Fri Dec 11 20:31:14 2020.
