 Gaussian 16, Revision A.03,

 -----------------------------------------------------------
 # opt freq B3LYP/6-31G(d) empiricaldispersion=gd3bj scf=xqc
 -----------------------------------------------------------

 -------------------------------
 CID_101071791_JID_4840_neutraal
 -------------------------------
 Symbolic Z-matrix:
 Charge =  0 Multiplicity = 1

 SCF Done:  E(RB3LYP) =  -681.611316311     A.U. after   16 cycles
 SCF Done:  E(RB3LYP) =  -681.616181867     A.U. after   13 cycles
 SCF Done:  E(RB3LYP) =  -681.615701384     A.U. after   14 cycles
 SCF Done:  E(RB3LYP) =  -681.617111090     A.U. after   15 cycles
 SCF Done:  E(RB3LYP) =  -681.618442290     A.U. after   14 cycles
 SCF Done:  E(RB3LYP) =  -681.619141984     A.U. after   16 cycles
 SCF Done:  E(RB3LYP) =  -681.619300078     A.U. after   14 cycles
 SCF Done:  E(RB3LYP) =  -681.619315639     A.U. after   14 cycles
 SCF Done:  E(RB3LYP) =  -681.619332836     A.U. after   12 cycles
 SCF Done:  E(RB3LYP) =  -681.619336338     A.U. after   11 cycles
 SCF Done:  E(RB3LYP) =  -681.619336449     A.U. after   10 cycles
 SCF Done:  E(RB3LYP) =  -681.619336493     A.U. after    8 cycles
 Optimization completed.
    -- Stationary point found.
 Normal termination of Gaussian 16 at Thu Dec 10 10:42:14 2020.

 --------------------------------------------------------------------
 #N Geom=AllCheck Guess=TCheck SCRF=Check GenChk RB3LYP/6-31G(d) Freq
 --------------------------------------------------------------------

 Structure from the checkpoint file:  "JID_4840.chk"
 -------------------------------
 CID_101071791_JID_4840_neutraal
 -------------------------------
 Charge =  0 Multiplicity = 1

 SCF Done:  E(RB3LYP) =  -681.619336493     A.U. after    1 cycles

  Exact polarizability: 158.495  -2.671 118.126  -3.537   2.413  53.519
 Approx polarizability: 225.880  -6.894 236.927  -2.298  14.213  86.530

                      1                      2                      3
                      A                      A                      A
 Frequencies --     38.4916                67.1368                70.3146
 Red. masses --      8.2079                 6.3465                 7.0649
 Frc consts  --      0.0072                 0.0169                 0.0206
 IR Inten    --      1.2994                 1.1457                 3.5640

                      4                      5                      6
                      A                      A                      A
 Frequencies --    110.8962               176.1534               205.8958
 Red. masses --     11.1726                 7.5399                 6.4757
 Frc consts  --      0.0810                 0.1378                 0.1617
 IR Inten    --      3.2917                 3.1933                 0.1792

                      7                      8                      9
                      A                      A                      A
 Frequencies --    238.4021               267.9568               319.1999
 Red. masses --      4.5829                 7.8530                 8.7246
 Frc consts  --      0.1535                 0.3322                 0.5237
 IR Inten    --      6.8792                 3.3435                 4.5569

                     10                     11                     12
                      A                      A                      A
 Frequencies --    370.7112               422.1319               436.1616
 Red. masses --      4.5468                 3.0946                 7.1719
 Frc consts  --      0.3681                 0.3249                 0.8039
 IR Inten    --      1.0935                 0.0564                 6.4439

                     13                     14                     15
                      A                      A                      A
 Frequencies --    510.4958               523.8430               539.1339
 Red. masses --      4.3744                 6.4706                 6.9197
 Frc consts  --      0.6717                 1.0462                 1.1850
 IR Inten    --      3.8843                 4.2939                 1.0567

                     16                     17                     18
                      A                      A                      A
 Frequencies --    584.6082               600.3306               645.4787
 Red. masses --      6.1515                 7.3342                 7.1201
 Frc consts  --      1.2387                 1.5573                 1.7478
 IR Inten    --      1.3573                 5.1149                 0.0347

                     19                     20                     21
                      A                      A                      A
 Frequencies --    707.2242               733.0806               761.2074
 Red. masses --      4.1407                 7.5011                 5.0543
 Frc consts  --      1.2202                 2.3751                 1.7255
 IR Inten    --     16.5115                 4.3276                17.2957

                     22                     23                     24
                      A                      A                      A
 Frequencies --    856.8768               860.2883               871.9518
 Red. masses --      2.6690                 1.7206                 2.1036
 Frc consts  --      1.1546                 0.7503                 0.9423
 IR Inten    --     35.9582                15.7598                24.7994

                     25                     26                     27
                      A                      A                      A
 Frequencies --    882.7724               897.0365               944.6461
 Red. masses --      2.5431                 2.5436                 6.4543
 Frc consts  --      1.1676                 1.2059                 3.3934
 IR Inten    --     12.1086                23.9825                21.7766

                     28                     29                     30
                      A                      A                      A
 Frequencies --    989.7054               999.6039              1037.5886
 Red. masses --      1.3341                 1.3168                 3.0028
 Frc consts  --      0.7699                 0.7752                 1.9047
 IR Inten    --      0.2383                 0.6012                10.5069

                     31                     32                     33
                      A                      A                      A
 Frequencies --   1090.6591              1136.7956              1140.7179
 Red. masses --      2.5000                 2.9731                 1.2870
 Frc consts  --      1.7521                 2.2637                 0.9867
 IR Inten    --     23.6729                31.1059                 7.3835

                     34                     35                     36
                      A                      A                      A
 Frequencies --   1146.7636              1168.7152              1215.4681
 Red. masses --      1.2927                 1.3361                 1.2598
 Frc consts  --      1.0016                 1.0753                 1.0966
 IR Inten    --      0.9677                 2.1364                 0.0851

                     37                     38                     39
                      A                      A                      A
 Frequencies --   1289.2451              1333.7682              1355.2985
 Red. masses --      4.1591                 1.5018                 3.5961
 Frc consts  --      4.0731                 1.5741                 3.8918
 IR Inten    --     32.9785                 7.3605                12.6375

                     40                     41                     42
                      A                      A                      A
 Frequencies --   1380.5750              1401.1439              1458.0107
 Red. masses --      7.6670                14.2966                 3.2483
 Frc consts  --      8.6098                16.5367                 4.0685
 IR Inten    --      6.4783               333.2643                 9.5906

                     43                     44                     45
                      A                      A                      A
 Frequencies --   1537.9742              1543.9058              1623.3875
 Red. masses --      1.2096                 2.3781                10.4123
 Frc consts  --      1.6857                 3.3399                16.1675
 IR Inten    --      1.3403                 8.9567               123.8120

                     46                     47                     48
                      A                      A                      A
 Frequencies --   1662.9494              1675.3191              2372.5975
 Red. masses --      5.7150                 9.5263                12.6860
 Frc consts  --      9.3116                15.7532                42.0749
 IR Inten    --     20.1634                85.3522                 1.6772

                     49                     50                     51
                      A                      A                      A
 Frequencies --   3121.3896              3215.3260              3220.2867
 Red. masses --      1.0493                 1.0907                 1.1236
 Frc consts  --      6.0233                 6.6438                 6.8654
 IR Inten    --     12.6071                 1.1747                10.3049

                     52                     53                     54
                      A                      A                      A
 Frequencies --   3228.7321              3256.9387              3257.8052
 Red. masses --      1.0899                 1.0930                 1.0928
 Frc consts  --      6.6941                 6.8312                 6.8336
 IR Inten    --      0.4536                 1.4578                 1.8480

 - Thermochemistry -
 -------------------
 Temperature   298.150 Kelvin.  Pressure   1.00000 Atm.
 Atom     1 has atomic number  6 and mass  12.00000

 Molecular mass:   190.03784 amu.
 Principal axes and moments of inertia in atomic units:
                           1         2         3
     Eigenvalues --   973.346435060.276755839.11232
           X            0.99995   0.00673  -0.00681
           Y           -0.00674   0.99997  -0.00249
           Z            0.00679   0.00253   0.99997
 This molecule is an asymmetric top.
 Rotational symmetry number  1.
 Warning -- assumption of classical behavior for rotation
           may cause significant error
 Rotational temperatures (Kelvin)      0.08899     0.01712     0.01483
 Rotational constants (GHZ):           1.85416     0.35665     0.30908
 Zero-point vibrational energy     367870.2 (Joules/Mol)
                                   87.92309 (Kcal/Mol)
 Warning -- explicit consideration of  17 degrees of freedom as
           vibrations may cause significant error
 Vibrational temperatures:     55.38    96.59   101.17   159.55   253.45
          (Kelvin)            296.24   343.01   385.53   459.26   533.37
                              607.35   627.54   734.49   753.69   775.69
                              841.12   863.74   928.70  1017.54  1054.74
                             1095.21  1232.85  1237.76  1254.54  1270.11
                             1290.64  1359.13  1423.97  1438.21  1492.86
                             1569.22  1635.60  1641.24  1649.94  1681.52
                             1748.79  1854.94  1918.99  1949.97  1986.34
                             2015.93  2097.75  2212.80  2221.34  2335.69
                             2392.61  2410.41  3413.64  4490.98  4626.14
                             4633.27  4645.43  4686.01  4687.26

 Zero-point correction=                           0.140114 (Hartree/Particle)
 Thermal correction to Energy=                    0.151556
 Thermal correction to Enthalpy=                  0.152501
 Thermal correction to Gibbs Free Energy=         0.101249
 Sum of electronic and zero-point Energies=           -681.479222
 Sum of electronic and thermal Energies=              -681.467780
 Sum of electronic and thermal Enthalpies=            -681.466836
 Sum of electronic and thermal Free Energies=         -681.518088

                     E (Thermal)             CV                S
                      KCal/Mol        Cal/Mol-Kelvin    Cal/Mol-Kelvin
 Total                   95.103             42.599            107.868
 Electronic               0.000              0.000              0.000
 Translational            0.889              2.981             41.632
 Rotational               0.889              2.981             31.731
 Vibrational             93.326             36.637             34.505
 Vibration     1          0.594              1.982              5.335
 Vibration     2          0.598              1.970              4.236
 Vibration     3          0.598              1.968              4.145
 Vibration     4          0.607              1.940              3.253
 Vibration     5          0.628              1.872              2.369
 Vibration     6          0.640              1.831              2.080
 Vibration     7          0.656              1.782              1.815
 Vibration     8          0.673              1.732              1.609
 Vibration     9          0.705              1.637              1.314
 Vibration    10          0.743              1.532              1.077
 Vibration    11          0.784              1.422              0.885
 Vibration    12          0.797              1.391              0.839
 Vibration    13          0.866              1.227              0.632
 Vibration    14          0.879              1.197              0.601
 Vibration    15          0.894              1.164              0.567
 Vibration    16          0.942              1.065              0.477
 Vibration    17          0.958              1.031              0.449

 Optimization completed.
    -- Stationary point found.
 Normal termination of Gaussian 16 at Thu Dec 10 10:47:15 2020.

 ----------------------------------------------------------------------
 # B3LYP/6-311++G(d,p) empiricaldispersion=gd3bj scf=xqc pop=npa geom=c
 heck
 ----------------------------------------------------------------------

 ---------------------------------------
 CID_101071791_JID_4840_Energie_neutraal
 ---------------------------------------
 Structure from the checkpoint file:  "JID_4840.chk"
 Charge =  0 Multiplicity = 1

 SCF Done:  E(RB3LYP) =  -681.808170041     A.U. after   16 cycles
 Normal termination of Gaussian 16 at Thu Dec 10 10:49:32 2020.

 ----------------------------------------------------------------------
 # B3LYP/6-311++G(d,p) empiricaldispersion=gd3bj scf=xqc pop=npa geom=c
 heck
 ----------------------------------------------------------------------

 -------------------------------------
 CID_101071791_JID_4840_Energie_kation
 -------------------------------------
 Structure from the checkpoint file:  "JID_4840.chk"
 Charge =  1 Multiplicity = 2

 SCF Done:  E(UB3LYP) =  -681.440021379     A.U. after   33 cycles
 SCF Done:  E(UB3LYP) =  -681.440021380     a.u. after    1 cycles
 Normal termination of Gaussian 16 at Thu Dec 10 10:55:37 2020.
 Gaussian 16:  ES64L-G16RevA.03 25-Dec-2016

 ----------------------------------------------------------------------
 # B3LYP/6-311++G(d,p) empiricaldispersion=gd3bj scf=xqc pop=npa geom=c
 heck
 ----------------------------------------------------------------------

 ------------------------------------
 CID_101071791_JID_4840_Energie_anion
 ------------------------------------
 Structure from the checkpoint file:  "JID_4840.chk"
 Charge = -1 Multiplicity = 2

                         Standard orientation:
 ---------------------------------------------------------------------
 Center     Atomic      Atomic             Coordinates (Angstroms)
 Number     Number       Type             X           Y           Z
 ---------------------------------------------------------------------
      1          6           0       -3.047664   -1.162781    0.939974
      2          6           0       -2.371794   -0.175905    0.055162
      3          8           0       -2.964873   -1.373167   -0.467063
      4          6           0       -3.097580    1.047107   -0.257576
      5          7           0       -3.654406    2.039607   -0.483637
      6          6           0       -0.875196   -0.086589    0.009300
      7          6           0       -0.225187    1.131477    0.238694
      8          6           0        1.164616    1.193408    0.236430
      9          6           0        1.885343    0.026796   -0.002114
     10          6           0        1.259906   -1.193881   -0.244105
     11          6           0       -0.129198   -1.245115   -0.238577
     12          7           0        3.355492    0.086166   -0.005128
     13          8           0        3.881514    1.177290    0.207783
     14          8           0        3.966448   -0.959950   -0.218214
     15          1           0       -4.041584   -0.942882    1.325709
     16          1           0       -2.415052   -1.804307    1.551731
     17          1           0       -0.803497    2.033168    0.412618
     18          1           0        1.692189    2.122159    0.411531
     19          1           0        1.861074   -2.073009   -0.437705
     20          1           0       -0.644914   -2.176019   -0.445709
 ---------------------------------------------------------------------

 SCF Done:  E(UB3LYP) =  -681.860519021     A.U. after   21 cycles

 The electronic state is 2-A.
 Alpha  occ. eigenvalues --  -19.06736 -18.95603 -18.95595 -14.33578 -14.23178
 Alpha  occ. eigenvalues --  -10.18293 -10.15058 -10.12812 -10.06950 -10.06554
 Alpha  occ. eigenvalues --  -10.05915 -10.05734 -10.04887 -10.04707  -1.03685
 Alpha  occ. eigenvalues --   -1.01365  -0.86595  -0.82580  -0.74793  -0.67937
 Alpha  occ. eigenvalues --   -0.63268  -0.62080  -0.58562  -0.54330  -0.49566
 Alpha  occ. eigenvalues --   -0.46075  -0.44265  -0.42584  -0.38277  -0.36133
 Alpha  occ. eigenvalues --   -0.35845  -0.35051  -0.33783  -0.32606  -0.31324
 Alpha  occ. eigenvalues --   -0.30815  -0.29985  -0.28798  -0.27017  -0.25708
 Alpha  occ. eigenvalues --   -0.24827  -0.23002  -0.22506  -0.20805  -0.15049
 Alpha  occ. eigenvalues --   -0.13893  -0.13824  -0.13249  -0.11316   0.01389
 Alpha virt. eigenvalues --    0.07167   0.08006   0.09258   0.09866   0.10085
 Alpha virt. eigenvalues --    0.10570   0.10952   0.12425   0.12734   0.13094
 Alpha virt. eigenvalues --    0.14297   0.14762   0.15504   0.15918   0.17479

  Beta  occ. eigenvalues --  -19.06677 -18.95154 -18.95139 -14.33055 -14.23166
  Beta  occ. eigenvalues --  -10.18324 -10.14970 -10.12802 -10.06799 -10.06264
  Beta  occ. eigenvalues --  -10.05958 -10.05767 -10.04781 -10.04573  -1.02750
  Beta  occ. eigenvalues --   -1.01246  -0.85747  -0.82557  -0.74472  -0.67491
  Beta  occ. eigenvalues --   -0.63018  -0.61736  -0.58346  -0.53611  -0.49411
  Beta  occ. eigenvalues --   -0.45770  -0.44016  -0.42408  -0.37761  -0.35950
  Beta  occ. eigenvalues --   -0.34760  -0.33405  -0.33124  -0.32490  -0.30896
  Beta  occ. eigenvalues --   -0.30746  -0.29745  -0.28741  -0.26905  -0.25337
  Beta  occ. eigenvalues --   -0.24505  -0.22883  -0.22090  -0.20716  -0.13740
  Beta  occ. eigenvalues --   -0.12786  -0.12382  -0.11356  -0.10866
  Beta virt. eigenvalues --    0.06946   0.07506   0.08693   0.09298   0.10136
  Beta virt. eigenvalues --    0.10324   0.10835   0.11047   0.12447   0.12908
  Beta virt. eigenvalues --    0.14259   0.14696   0.14998   0.15820   0.15972

 Mulliken charges and spin densities:
               1          2
     1  C   -0.437021   0.029008
     2  C    0.983154   0.001126
     3  O   -0.106442   0.011763
     4  C   -0.755161   0.003654
     5  N   -0.233324   0.005419
     6  C    1.052737   0.164783
     7  C   -0.727580  -0.008458
     8  C   -0.576437   0.151068
     9  C   -0.075091   0.005005
    10  C   -0.384828   0.126356
    11  C   -0.160628  -0.006107
    12  N   -0.277894   0.177495
    13  O   -0.168346   0.170606
    14  O   -0.172601   0.172642
    15  H    0.140234   0.009566
    16  H    0.147193  -0.001920
    17  H    0.144390   0.002422
    18  H    0.215422  -0.008508
    19  H    0.216800  -0.006574
    20  H    0.175420   0.000653
 Sum of Mulliken charges =  -1.00000   1.00000

 Dipole moment (field-independent basis, Debye):
    X=             -8.4297    Y=             -2.4480    Z=              2.2243  Tot=              9.0554
 Quadrupole moment (field-independent basis, Debye-Ang):
   XX=           -156.6460   YY=            -95.0543   ZZ=            -84.9401
   XY=              7.7991   XZ=             -7.9878   YZ=             -1.1197

 Summary of Natural Population Analysis:

                                       Natural Population
                Natural  -----------------------------------------------
    Atom  No    Charge         Core      Valence    Rydberg      Total
 -----------------------------------------------------------------------
      C    1   -0.00169      0.99956     1.99295    0.00918     3.00169
      C    2    0.05728      0.99941     1.92747    0.01584     2.94272
      O    3   -0.26052      0.99992     3.25228    0.00833     4.26052
      C    4    0.15744      0.99963     1.82432    0.01862     2.84256
      N    5   -0.17504      0.99979     2.66409    0.01116     3.67504
      C    6    0.00984      0.99948     1.98085    0.00982     2.99016
      C    7   -0.11405      0.99953     2.10712    0.00740     3.11405
      C    8   -0.06834      0.99953     2.05933    0.00948     3.06834
      C    9    0.06515      0.99940     1.92041    0.01504     2.93485
      C   10   -0.07397      0.99953     2.06498    0.00946     3.07397
      C   11   -0.11415      0.99953     2.10630    0.00832     3.11415
      N   12    0.29490      0.99972     2.17876    0.02662     3.20510
      O   13   -0.19206      0.99990     3.18448    0.00768     4.19206
      O   14   -0.19176      0.99990     3.18419    0.00767     4.19176
      H   15    0.08555      0.00000     0.41321    0.00124     0.41445
      H   16    0.09162      0.00000     0.40725    0.00112     0.40838
      H   17    0.09978      0.00000     0.39886    0.00136     0.40022
      H   18    0.11412      0.00000     0.38477    0.00111     0.38588
      H   19    0.11393      0.00000     0.38496    0.00111     0.38607
      H   20    0.10197      0.00000     0.39692    0.00111     0.39803
 =======================================================================
   * Total *    0.00000     13.99483    34.83350    0.17166    49.00000

 Normal termination of Gaussian 16 at Thu Dec 10 11:00:07 2020.
