 Gaussian 16, Revision A.03,

 -----------------------------------------------------------
 # opt freq B3LYP/6-31G(d) empiricaldispersion=gd3bj scf=xqc
 -----------------------------------------------------------

 -------------------------------
 CID_107806641_JID_9259_neutraal
 -------------------------------
 Symbolic Z-matrix:
 Charge =  0 Multiplicity = 1

 SCF Done:  E(RB3LYP) =  -1146.75460172     A.U. after   15 cycles
 SCF Done:  E(RB3LYP) =  -1146.76529071     A.U. after   13 cycles
 SCF Done:  E(RB3LYP) =  -1146.76704000     A.U. after   12 cycles
 SCF Done:  E(RB3LYP) =  -1146.76728620     A.U. after   12 cycles
 SCF Done:  E(RB3LYP) =  -1146.76759136     A.U. after   11 cycles
 SCF Done:  E(RB3LYP) =  -1146.76789157     A.U. after   11 cycles
 SCF Done:  E(RB3LYP) =  -1146.76802187     A.U. after   12 cycles
 SCF Done:  E(RB3LYP) =  -1146.76809773     A.U. after   11 cycles
 SCF Done:  E(RB3LYP) =  -1146.76797279     A.U. after   11 cycles
 SCF Done:  E(RB3LYP) =  -1146.76817641     A.U. after   11 cycles
 SCF Done:  E(RB3LYP) =  -1146.76814667     A.U. after   10 cycles
 SCF Done:  E(RB3LYP) =  -1146.76816818     A.U. after   10 cycles
 SCF Done:  E(RB3LYP) =  -1146.76817515     A.U. after   10 cycles
 SCF Done:  E(RB3LYP) =  -1146.76817491     A.U. after    7 cycles
 Optimization completed.
    -- Stationary point found.
 Normal termination of Gaussian 16 at Mon Dec 14 16:53:12 2020.

 --------------------------------------------------------------------
 #N Geom=AllCheck Guess=TCheck SCRF=Check GenChk RB3LYP/6-31G(d) Freq
 --------------------------------------------------------------------

 Structure from the checkpoint file:  "JID_9259.chk"
 -------------------------------
 CID_107806641_JID_9259_neutraal
 -------------------------------
 Charge =  0 Multiplicity = 1

 SCF Done:  E(RB3LYP) =  -1146.76817491     A.U. after    1 cycles

  Exact polarizability: 278.706 -13.284 148.944   2.006 -20.945 164.511
 Approx polarizability: 397.815 -27.225 223.848   2.040 -58.376 290.084

                      1                      2                      3
                      A                      A                      A
 Frequencies --     18.1319                42.8575                63.5848
 Red. masses --      3.9688                 5.7741                 3.2330
 Frc consts  --      0.0008                 0.0062                 0.0077
 IR Inten    --      0.4081                 1.4016                 0.0208

                      4                      5                      6
                      A                      A                      A
 Frequencies --     90.6858               103.9689               144.2650
 Red. masses --      2.4161                 3.9155                 4.8616
 Frc consts  --      0.0117                 0.0249                 0.0596
 IR Inten    --      0.1219                 0.0657                 0.9671

                      7                      8                      9
                      A                      A                      A
 Frequencies --    184.3185               198.4650               213.9751
 Red. masses --      2.8068                 4.9457                 2.0048
 Frc consts  --      0.0562                 0.1148                 0.0541
 IR Inten    --      1.6825                 3.5796                 0.1503

                     10                     11                     12
                      A                      A                      A
 Frequencies --    226.9523               240.5201               249.9744
 Red. masses --      1.3731                 1.6294                 2.8580
 Frc consts  --      0.0417                 0.0555                 0.1052
 IR Inten    --      0.3073                 0.9344                 0.7104

                     13                     14                     15
                      A                      A                      A
 Frequencies --    261.9953               283.9252               293.6901
 Red. masses --      1.3673                 1.6462                 3.0473
 Frc consts  --      0.0553                 0.0782                 0.1549
 IR Inten    --      0.4042                 1.9691                 0.0783

                     16                     17                     18
                      A                      A                      A
 Frequencies --    332.6653               346.0199               356.9826
 Red. masses --      2.8497                 2.5320                 3.6776
 Frc consts  --      0.1858                 0.1786                 0.2761
 IR Inten    --      0.2267                 1.3969                 4.8446

                     19                     20                     21
                      A                      A                      A
 Frequencies --    412.6724               419.1545               432.7025
 Red. masses --      2.4353                 3.1528                 2.5441
 Frc consts  --      0.2444                 0.3264                 0.2807
 IR Inten    --      0.1095                14.0884                 6.9894

                     22                     23                     24
                      A                      A                      A
 Frequencies --    458.5561               463.8906               480.3090
 Red. masses --      2.6730                 2.6591                 3.2912
 Frc consts  --      0.3312                 0.3371                 0.4473
 IR Inten    --      5.1327                 9.0940                 1.5191

                     25                     26                     27
                      A                      A                      A
 Frequencies --    507.8982               536.4966               551.7937
 Red. masses --      5.2010                 5.9310                 5.6977
 Frc consts  --      0.7905                 1.0058                 1.0221
 IR Inten    --     12.3749                 4.7171                 1.6546

                     28                     29                     30
                      A                      A                      A
 Frequencies --    574.9329               631.6052               652.7056
 Red. masses --      3.3180                 4.1308                 4.0847
 Frc consts  --      0.6462                 0.9709                 1.0253
 IR Inten    --      0.9011                 1.6041                 3.3029

                     31                     32                     33
                      A                      A                      A
 Frequencies --    672.4922               727.6189               731.8837
 Red. masses --      6.0549                 3.8539                 3.3853
 Frc consts  --      1.6134                 1.2022                 1.0684
 IR Inten    --      9.0929                 5.9308                16.1454

                     34                     35                     36
                      A                      A                      A
 Frequencies --    740.4467               779.7429               798.4348
 Red. masses --      4.1371                 1.7105                 2.4684
 Frc consts  --      1.3364                 0.6127                 0.9271
 IR Inten    --      0.7296                29.0332                12.3269

                     37                     38                     39
                      A                      A                      A
 Frequencies --    804.8933               811.9213               831.0168
 Red. masses --      1.5809                 1.9941                 1.9345
 Frc consts  --      0.6034                 0.7745                 0.7871
 IR Inten    --      2.1951                22.5341                32.6384

                     40                     41                     42
                      A                      A                      A
 Frequencies --    839.3652               851.9242               862.4750
 Red. masses --      2.2786                 1.9833                 1.8171
 Frc consts  --      0.9459                 0.8481                 0.7964
 IR Inten    --     16.2464                 9.6056                25.0539

                     43                     44                     45
                      A                      A                      A
 Frequencies --    895.3912               914.3608               924.1872
 Red. masses --      3.9700                 1.8378                 2.1846
 Frc consts  --      1.8753                 0.9053                 1.0994
 IR Inten    --     25.7174                10.9605                13.2842

                     46                     47                     48
                      A                      A                      A
 Frequencies --    949.4885               953.5845               960.7025
 Red. masses --      1.4486                 1.2936                 1.9367
 Frc consts  --      0.7695                 0.6930                 1.0532
 IR Inten    --      3.7067                 0.6303                 9.9652

                     49                     50                     51
                      A                      A                      A
 Frequencies --    982.3271              1019.7616              1029.9803
 Red. masses --      2.0177                 1.8082                 1.5352
 Frc consts  --      1.1471                 1.1079                 0.9595
 IR Inten    --     51.4839                 5.2929                22.6458

                     52                     53                     54
                      A                      A                      A
 Frequencies --   1055.8387              1070.9951              1089.2093
 Red. masses --      1.9225                 2.4585                 1.7585
 Frc consts  --      1.2628                 1.6615                 1.2292
 IR Inten    --     11.3902                23.3804                 1.9656

                     55                     56                     57
                      A                      A                      A
 Frequencies --   1111.2949              1143.6990              1155.8596
 Red. masses --      2.0904                 2.4026                 1.8148
 Frc consts  --      1.5210                 1.8517                 1.4285
 IR Inten    --     32.0972                 4.9128                 9.2863

                     58                     59                     60
                      A                      A                      A
 Frequencies --   1168.0929              1196.4268              1220.7371
 Red. masses --      1.4898                 2.5844                 2.4210
 Frc consts  --      1.1976                 2.1796                 2.1256
 IR Inten    --      2.0474                49.2872                18.3921

                     61                     62                     63
                      A                      A                      A
 Frequencies --   1233.1452              1240.5229              1256.5831
 Red. masses --      2.4383                 1.6628                 2.8522
 Frc consts  --      2.1846                 1.5076                 2.6535
 IR Inten    --     28.6513                11.1625                20.4238

                     64                     65                     66
                      A                      A                      A
 Frequencies --   1293.5124              1301.2331              1310.3182
 Red. masses --      1.3920                 1.4234                 1.5340
 Frc consts  --      1.3722                 1.4200                 1.5518
 IR Inten    --     49.7294                22.7552                38.8526

                     67                     68                     69
                      A                      A                      A
 Frequencies --   1328.8045              1336.5638              1352.9581
 Red. masses --      1.5747                 1.9082                 2.3121
 Frc consts  --      1.6382                 2.0084                 2.4936
 IR Inten    --     16.6482                 6.7783                10.3154

                     70                     71                     72
                      A                      A                      A
 Frequencies --   1354.8715              1374.0642              1401.4946
 Red. masses --      1.8982                 1.5863                 1.3039
 Frc consts  --      2.0530                 1.7647                 1.5089
 IR Inten    --     12.0679                22.0146                 2.1641

                     73                     74                     75
                      A                      A                      A
 Frequencies --   1411.0812              1421.2392              1427.7295
 Red. masses --      1.3716                 1.4233                 1.3085
 Frc consts  --      1.6090                 1.6939                 1.5715
 IR Inten    --     22.7288                10.8261                 4.8649

                     76                     77                     78
                      A                      A                      A
 Frequencies --   1439.9964              1447.1873              1457.3467
 Red. masses --      1.3427                 1.2745                 1.4886
 Frc consts  --      1.6404                 1.5727                 1.8628
 IR Inten    --      8.3837                12.8451                27.9800

                     79                     80                     81
                      A                      A                      A
 Frequencies --   1467.9082              1498.9087              1503.2173
 Red. masses --      3.2961                 1.2464                 1.6553
 Frc consts  --      4.1845                 1.6499                 2.2039
 IR Inten    --     11.3853                 5.5054                99.5679

                     82                     83                     84
                      A                      A                      A
 Frequencies --   1508.3319              1512.8418              1516.2130
 Red. masses --      1.3319                 1.1820                 1.0719
 Frc consts  --      1.7853                 1.5939                 1.4519
 IR Inten    --     22.7877                10.2043                 2.6012

                     85                     86                     87
                      A                      A                      A
 Frequencies --   1520.2035              1527.3452              1532.2424
 Red. masses --      1.1171                 1.0666                 1.0815
 Frc consts  --      1.5211                 1.4659                 1.4959
 IR Inten    --      3.7166                 7.4612                10.8197

                     88                     89                     90
                      A                      A                      A
 Frequencies --   1536.2196              1550.1889              1551.1329
 Red. masses --      1.0962                 1.7704                 1.5829
 Frc consts  --      1.5242                 2.5067                 2.2439
 IR Inten    --      1.4100                36.6178                48.1257

                     91                     92                     93
                      A                      A                      A
 Frequencies --   1552.8768              1599.2273              1661.1051
 Red. masses --      1.2439                 5.3021                 6.5500
 Frc consts  --      1.7674                 7.9895                10.6484
 IR Inten    --     34.7636                80.7296               208.8738

                     94                     95                     96
                      A                      A                      A
 Frequencies --   2955.9654              3025.0956              3043.5832
 Red. masses --      1.0729                 1.0652                 1.0375
 Frc consts  --      5.5237                 5.7435                 5.6623
 IR Inten    --     63.7308                29.3172                16.1718

                     97                     98                     99
                      A                      A                      A
 Frequencies --   3049.3739              3055.8804              3068.9109
 Red. masses --      1.0387                 1.0400                 1.0961
 Frc consts  --      5.6907                 5.7222                 6.0825
 IR Inten    --     38.2991                32.3802                18.3828

                    100                    101                    102
                      A                      A                      A
 Frequencies --   3076.3912              3094.1196              3105.0217
 Red. masses --      1.0903                 1.0662                 1.1011
 Frc consts  --      6.0797                 6.0139                 6.2548
 IR Inten    --     56.4637                47.3920                 1.3603

                    103                    104                    105
                      A                      A                      A
 Frequencies --   3111.5805              3115.5760              3117.6201
 Red. masses --      1.1004                 1.0845                 1.0932
 Frc consts  --      6.2771                 6.2023                 6.2602
 IR Inten    --     40.8059                11.2659                73.6581

                    106                    107                    108
                      A                      A                      A
 Frequencies --   3131.3973              3141.9045              3150.1692
 Red. masses --      1.1023                 1.0982                 1.1017
 Frc consts  --      6.3685                 6.3872                 6.4412
 IR Inten    --     17.8055                22.2544                25.8517

                    109                    110                    111
                      A                      A                      A
 Frequencies --   3152.9364              3208.3893              3215.8755
 Red. masses --      1.1024                 1.0874                 1.0904
 Frc consts  --      6.4571                 6.5948                 6.6439
 IR Inten    --     13.4292                10.1466                 5.8348

                    112                    113                    114
                      A                      A                      A
 Frequencies --   3224.8101              3239.6603              3479.1328
 Red. masses --      1.0934                 1.0941                 1.0741
 Frc consts  --      6.6996                 6.7655                 7.6601
 IR Inten    --     14.3714                 1.4407                 2.9277

 - Thermochemistry -
 -------------------
 Temperature   298.150 Kelvin.  Pressure   1.00000 Atm.
 Atom     1 has atomic number  6 and mass  12.00000

 Molecular mass:   275.14562 amu.
 Principal axes and moments of inertia in atomic units:
                           1         2         3
     Eigenvalues --  2608.577849692.73195**********
           X            0.99997   0.00273  -0.00728
           Y           -0.00239   0.99890   0.04678
           Z            0.00740  -0.04676   0.99888
 This molecule is an asymmetric top.
 Rotational symmetry number  1.
 Warning -- assumption of classical behavior for rotation
           may cause significant error
 Rotational temperatures (Kelvin)      0.03320     0.00894     0.00853
 Rotational constants (GHZ):           0.69185     0.18620     0.17770
 Zero-point vibrational energy     904734.9 (Joules/Mol)
                                  216.23682 (Kcal/Mol)
 Warning -- explicit consideration of  28 degrees of freedom as
           vibrations may cause significant error
 Vibrational temperatures:     26.09    61.66    91.48   130.48   149.59
          (Kelvin)            207.57   265.19   285.55   307.86   326.53
                              346.05   359.66   376.95   408.51   422.55
                              478.63   497.85   513.62   593.74   603.07
                              622.56   659.76   667.44   691.06   730.75
                              771.90   793.91   827.20   908.74   939.10
                              967.57  1046.88  1053.02  1065.34  1121.88
                             1148.77  1158.06  1168.17  1195.65  1207.66
                             1225.73  1240.91  1288.27  1315.56  1329.70
                             1366.10  1372.00  1382.24  1413.35  1467.21
                             1481.91  1519.12  1540.92  1567.13  1598.91
                             1645.53  1663.02  1680.63  1721.39  1756.37
                             1774.22  1784.84  1807.94  1861.08  1872.18
                             1885.26  1911.85  1923.02  1946.60  1949.36
                             1976.97  2016.44  2030.23  2044.85  2054.18
                             2071.83  2082.18  2096.80  2111.99  2156.60
                             2162.79  2170.15  2176.64  2181.49  2187.23
                             2197.51  2204.56  2210.28  2230.38  2231.73
                             2234.24  2300.93  2389.96  4252.97  4352.44
                             4379.04  4387.37  4396.73  4415.48  4426.24
                             4451.75  4467.43  4476.87  4482.62  4485.56
                             4505.38  4520.50  4532.39  4536.37  4616.16
                             4626.93  4639.78  4661.15  5005.70

 Zero-point correction=                           0.344595 (Hartree/Particle)
 Thermal correction to Energy=                    0.362255
 Thermal correction to Enthalpy=                  0.363199
 Thermal correction to Gibbs Free Energy=         0.298863
 Sum of electronic and zero-point Energies=          -1146.423580
 Sum of electronic and thermal Energies=             -1146.405920
 Sum of electronic and thermal Enthalpies=           -1146.404976
 Sum of electronic and thermal Free Energies=        -1146.469312

                     E (Thermal)             CV                S
                      KCal/Mol        Cal/Mol-Kelvin    Cal/Mol-Kelvin
 Total                  227.318             70.728            135.407
 Electronic               0.000              0.000              0.000
 Translational            0.889              2.981             42.735
 Rotational               0.889              2.981             33.906
 Vibrational            225.541             64.766             58.766
 Vibration     1          0.593              1.986              6.829
 Vibration     2          0.595              1.980              5.122
 Vibration     3          0.597              1.972              4.343
 Vibration     4          0.602              1.956              3.645
 Vibration     5          0.605              1.946              3.379
 Vibration     6          0.616              1.909              2.747
 Vibration     7          0.631              1.861              2.284
 Vibration     8          0.637              1.842              2.147
 Vibration     9          0.644              1.820              2.009
 Vibration    10          0.651              1.800              1.903
 Vibration    11          0.658              1.778              1.799
 Vibration    12          0.663              1.763              1.731
 Vibration    13          0.669              1.742              1.648
 Vibration    14          0.682              1.703              1.510
 Vibration    15          0.688              1.685              1.453
 Vibration    16          0.715              1.610              1.247
 Vibration    17          0.724              1.583              1.184
 Vibration    18          0.732              1.561              1.135
 Vibration    19          0.776              1.443              0.917
 Vibration    20          0.782              1.429              0.895
 Vibration    21          0.794              1.399              0.850
 Vibration    22          0.817              1.342              0.770
 Vibration    23          0.821              1.330              0.755
 Vibration    24          0.837              1.294              0.709
 Vibration    25          0.863              1.232              0.639
 Vibration    26          0.892              1.169              0.573
 Vibration    27          0.907              1.136              0.540
 Vibration    28          0.931              1.085              0.495

                           ! Non-Optimized Parameters !
 Normal termination of Gaussian 16 at Mon Dec 14 17:18:11 2020.

 ----------------------------------------------------------------------
 # B3LYP/6-311++G(d,p) empiricaldispersion=gd3bj scf=xqc pop=npa geom=c
 heck
 ----------------------------------------------------------------------

 ---------------------------------------
 CID_107806641_JID_9259_Energie_neutraal
 ---------------------------------------
 Structure from the checkpoint file:  "JID_9259.chk"
 Charge =  0 Multiplicity = 1

 SCF Done:  E(RB3LYP) =  -1146.99043628     A.U. after   16 cycles
 Normal termination of Gaussian 16 at Mon Dec 14 17:30:43 2020.

 ----------------------------------------------------------------------
 # B3LYP/6-311++G(d,p) empiricaldispersion=gd3bj scf=xqc pop=npa geom=c
 heck
 ----------------------------------------------------------------------

 -------------------------------------
 CID_107806641_JID_9259_Energie_kation
 -------------------------------------
 Structure from the checkpoint file:  "JID_9259.chk"
 Charge =  1 Multiplicity = 2

 SCF Done:  E(UB3LYP) =  -1146.73938413     A.U. after   24 cycles
 Normal termination of Gaussian 16 at Mon Dec 14 17:58:18 2020.
 Gaussian 16:  ES64L-G16RevA.03 25-Dec-2016

 ----------------------------------------------------------------------
 # B3LYP/6-311++G(d,p) empiricaldispersion=gd3bj scf=xqc pop=npa geom=c
 heck
 ----------------------------------------------------------------------

 ------------------------------------
 CID_107806641_JID_9259_Energie_anion
 ------------------------------------
 Structure from the checkpoint file:  "JID_9259.chk"
 Charge = -1 Multiplicity = 2

                         Standard orientation:
 ---------------------------------------------------------------------
 Center     Atomic      Atomic             Coordinates (Angstroms)
 Number     Number       Type             X           Y           Z
 ---------------------------------------------------------------------
      1          6           0        3.669992   -1.610414   -1.771700
      2          6           0        2.665968   -2.278475   -0.824928
      3          6           0        1.949405   -1.419798    0.243308
      4          6           0        2.889095   -0.735146    1.250299
      5          7           0        3.471222    0.480567    0.681312
      6          6           0        2.477058    1.483261    0.253008
      7          6           0        1.591043    0.798089   -0.808163
      8          7           0        1.000834   -0.452731   -0.327982
      9          6           0       -0.351181   -0.465899    0.043530
     10          6           0       -1.304854    0.095292   -0.825001
     11          6           0       -2.645267    0.095859   -0.454324
     12          6           0       -3.090710   -0.480080    0.760659
     13          6           0       -2.141030   -1.050713    1.615292
     14          6           0       -0.799786   -1.032446    1.265479
     15          7           0       -4.459397   -0.421629    0.985408
     16          6           0       -5.057044    0.162679    0.002412
     17         16           0       -4.030206    0.722672   -1.332149
     18          6           0        3.241684    2.633875   -0.406659
     19          6           0        1.613488    2.022914    1.410626
     20          1           0        3.169135   -0.981284   -2.513782
     21          1           0        4.226720   -2.377136   -2.323207
     22          1           0        4.379594   -0.984298   -1.225566
     23          1           0        1.884654   -2.776512   -1.412659
     24          1           0        3.185703   -3.073363   -0.271051
     25          1           0        1.354886   -2.140052    0.807693
     26          1           0        2.321952   -0.547315    2.179522
     27          1           0        3.707933   -1.417398    1.506157
     28          1           0        4.099590    0.905443    1.361606
     29          1           0        2.197304    0.611378   -1.698083
     30          1           0        0.788130    1.479970   -1.091165
     31          1           0       -0.995461    0.491933   -1.785262
     32          1           0       -2.464715   -1.482591    2.556854
     33          1           0       -0.077919   -1.434492    1.966572
     34          1           0       -6.128301    0.321529   -0.047551
     35          1           0        2.552164    3.382341   -0.813055
     36          1           0        3.886037    3.138541    0.323949
     37          1           0        3.875316    2.257567   -1.215698
     38          1           0        1.002753    1.240848    1.869047
     39          1           0        2.250992    2.460716    2.188795
     40          1           0        0.931068    2.804008    1.057079
 ---------------------------------------------------------------------

 SCF Done:  E(UB3LYP) =  -1146.98254775     A.U. after   33 cycles
 SCF Done:  E(UB3LYP) =  -1146.98254775     a.u. after    1 cycles

 The electronic state is 2-A.
 Alpha  occ. eigenvalues --  -88.76977 -14.21768 -14.20363 -14.19779 -10.11650
 Alpha  occ. eigenvalues --  -10.11024 -10.10764 -10.10725 -10.10422 -10.09846
 Alpha  occ. eigenvalues --  -10.09338 -10.09197 -10.07103 -10.06933 -10.06779
 Alpha  occ. eigenvalues --  -10.06715 -10.06570 -10.05917 -10.05872  -7.85629
 Alpha  occ. eigenvalues --   -5.81915  -5.81590  -5.81190  -0.85634  -0.85211
 Alpha  occ. eigenvalues --   -0.80361  -0.73799  -0.70723  -0.69254  -0.67053
 Alpha  occ. eigenvalues --   -0.63494  -0.62729  -0.61092  -0.59432  -0.57516
 Alpha  occ. eigenvalues --   -0.54083  -0.51406  -0.50699  -0.47644  -0.47394
 Alpha  occ. eigenvalues --   -0.43245  -0.42366  -0.39356  -0.38391  -0.37829
 Alpha  occ. eigenvalues --   -0.37078  -0.36875  -0.36233  -0.33709  -0.33492
 Alpha  occ. eigenvalues --   -0.32617  -0.31697  -0.31584  -0.30872  -0.30540
 Alpha  occ. eigenvalues --   -0.29887  -0.29613  -0.28873  -0.28541  -0.27581
 Alpha  occ. eigenvalues --   -0.26315  -0.26058  -0.25459  -0.24382  -0.23758
 Alpha  occ. eigenvalues --   -0.23522  -0.23077  -0.22764  -0.19911  -0.17146
 Alpha  occ. eigenvalues --   -0.16605  -0.13562  -0.13123  -0.09039   0.04157
 Alpha virt. eigenvalues --    0.05644   0.06691   0.07250   0.07608   0.07862
 Alpha virt. eigenvalues --    0.08377   0.09029   0.09063   0.09423   0.09803
 Alpha virt. eigenvalues --    0.10171   0.11261   0.11301   0.11519   0.11980

  Beta  occ. eigenvalues --  -88.76965 -14.21758 -14.20286 -14.19759 -10.11389
  Beta  occ. eigenvalues --  -10.11023 -10.10728 -10.10655 -10.10426 -10.09826
  Beta  occ. eigenvalues --  -10.09317 -10.09181 -10.07088 -10.06898 -10.06772
  Beta  occ. eigenvalues --  -10.06636 -10.06547 -10.05904 -10.05850  -7.85618
  Beta  occ. eigenvalues --   -5.81912  -5.81588  -5.81144  -0.85536  -0.85026
  Beta  occ. eigenvalues --   -0.80306  -0.73690  -0.70697  -0.69135  -0.67001
  Beta  occ. eigenvalues --   -0.63363  -0.62588  -0.61033  -0.59390  -0.57429
  Beta  occ. eigenvalues --   -0.54023  -0.51208  -0.50591  -0.47471  -0.47324
  Beta  occ. eigenvalues --   -0.43192  -0.42305  -0.39273  -0.38288  -0.37772
  Beta  occ. eigenvalues --   -0.37026  -0.36829  -0.36179  -0.33651  -0.33433
  Beta  occ. eigenvalues --   -0.32567  -0.31631  -0.31331  -0.30653  -0.30446
  Beta  occ. eigenvalues --   -0.29832  -0.29566  -0.28820  -0.28499  -0.27547
  Beta  occ. eigenvalues --   -0.26257  -0.26016  -0.25323  -0.24331  -0.23579
  Beta  occ. eigenvalues --   -0.23310  -0.23011  -0.22730  -0.19571  -0.17045
  Beta  occ. eigenvalues --   -0.16126  -0.13260  -0.13006  -0.08685
  Beta virt. eigenvalues --    0.06302   0.07187   0.07564   0.07583   0.07676
  Beta virt. eigenvalues --    0.08039   0.08614   0.09316   0.09406   0.09449
  Beta virt. eigenvalues --    0.10068   0.10303   0.11287   0.11455   0.11666

 Mulliken charges and spin densities:
               1          2
     1  C   -0.372264  -0.203074
     2  C    0.147937  -0.611078
     3  C   -0.997000   1.224254
     4  C    1.063429  -1.367788
     5  N   -0.173905   0.113100
     6  C   -1.613348   1.501806
     7  C    1.043375  -1.412886
     8  N    0.410455   0.090786
     9  C   -0.127067  -0.247962
    10  C   -0.125335   0.178541
    11  C    1.780714   0.005674
    12  C   -1.142950  -0.278555
    13  C   -1.067545   0.477897
    14  C   -0.164741  -0.231991
    15  N   -0.000533   0.023813
    16  C    0.262922   0.173977
    17  S   -0.756174   0.040732
    18  C    0.610970  -0.979390
    19  C    0.046509  -0.662167
    20  H    0.009337   0.116693
    21  H   -0.108571   0.246240
    22  H    0.200831  -0.013146
    23  H    0.097028   0.047606
    24  H   -0.051050   0.190854
    25  H   -0.040437   0.192137
    26  H    0.049792   0.091770
    27  H   -0.559607   0.753251
    28  H   -0.004982   0.275575
    29  H    0.259253  -0.118745
    30  H    0.230692  -0.112198
    31  H    0.057828   0.102312
    32  H    0.125309   0.043267
    33  H   -0.005213   0.150180
    34  H    0.238807  -0.014692
    35  H    0.036196   0.096739
    36  H   -0.301620   0.451185
    37  H   -0.027565   0.175698
    38  H    0.186909  -0.045073
    39  H   -0.376647   0.548526
    40  H    0.158260  -0.013869
 Sum of Mulliken charges =  -1.00000   1.00000

 Dipole moment (field-independent basis, Debye):
    X=             -3.4045    Y=              0.3295    Z=             -3.3432  Tot=              4.7829
 Quadrupole moment (field-independent basis, Debye-Ang):
   XX=           -217.3361   YY=           -161.2472   ZZ=           -155.0530
   XY=             -6.8636   XZ=             -4.2461   YZ=             -4.8493

 Summary of Natural Population Analysis:

                                       Natural Population
                Natural  -----------------------------------------------
    Atom  No    Charge         Core      Valence    Rydberg      Total
 -----------------------------------------------------------------------
      C    1   -0.29017      0.99966     2.28610    0.00441     3.29017
      C    2   -0.18696      0.99961     2.17908    0.00827     3.18696
      C    3   -0.00316      0.99956     1.99042    0.01319     3.00316
      C    4   -0.09316      0.99958     2.08110    0.01248     3.09316
      N    5   -0.34995      0.99971     2.83633    0.01391     3.84995
      C    6    0.05100      0.99957     1.93646    0.01297     2.94900
      C    7   -0.07963      0.99954     2.06870    0.01140     3.07963
      N    8   -0.26867      0.99965     2.75539    0.01363     3.76867
      C    9    0.11845      0.99948     1.87140    0.01067     2.88155
      C   10   -0.12932      0.99946     2.12088    0.00897     3.12932
      C   11   -0.09384      0.99940     2.08416    0.01027     3.09384
      C   12    0.03686      0.99942     1.94904    0.01468     2.96314
      C   13   -0.06613      0.99952     2.05814    0.00847     3.06613
      C   14   -0.13705      0.99953     2.12864    0.00887     3.13705
      N   15   -0.22544      0.99966     2.71513    0.01064     3.72544
      C   16    0.00326      0.99966     1.98140    0.01568     2.99674
      S   17    0.14940      4.99949     2.83160    0.01951     7.85060
      C   18   -0.28564      0.99961     2.27837    0.00766     3.28564
      C   19   -0.29672      0.99961     2.29053    0.00657     3.29672
      H   20    0.09317      0.00000     0.40579    0.00104     0.40683
      H   21    0.09406      0.00000     0.40508    0.00086     0.40594
      H   22    0.10957      0.00000     0.38904    0.00139     0.39043
      H   23    0.09666      0.00000     0.40227    0.00107     0.40334
      H   24    0.09421      0.00000     0.40471    0.00108     0.40579
      H   25    0.10336      0.00000     0.39450    0.00213     0.39664
      H   26    0.08268      0.00000     0.41545    0.00187     0.41732
      H   27    0.09806      0.00000     0.40053    0.00142     0.40194
      H   28    0.17754      0.00000     0.31864    0.00382     0.32246
      H   29    0.09560      0.00000     0.40294    0.00146     0.40440
      H   30    0.10173      0.00000     0.39717    0.00109     0.39827
      H   31    0.10159      0.00000     0.39672    0.00169     0.39841
      H   32    0.10007      0.00000     0.39774    0.00219     0.39993
      H   33    0.09983      0.00000     0.39863    0.00154     0.40017
      H   34    0.08901      0.00000     0.40976    0.00123     0.41099
      H   35    0.09783      0.00000     0.40143    0.00074     0.40217
      H   36    0.10269      0.00000     0.39608    0.00123     0.39731
      H   37    0.10330      0.00000     0.39568    0.00102     0.39670
      H   38    0.10589      0.00000     0.39291    0.00120     0.39411
      H   39    0.10033      0.00000     0.39853    0.00114     0.39967
      H   40    0.09968      0.00000     0.39955    0.00076     0.40032
 =======================================================================
   * Total *   -0.00000     22.99173    50.76603    0.24224    74.00000

 Normal termination of Gaussian 16 at Mon Dec 14 18:36:38 2020.
