 Gaussian 16, Revision A.03,

 -----------------------------------------------------------
 # opt freq B3LYP/6-31G(d) empiricaldispersion=gd3bj scf=xqc
 -----------------------------------------------------------

 -------------------------------
 CID_79213653_JID_10582_neutraal
 -------------------------------
 Symbolic Z-matrix:
 Charge =  0 Multiplicity = 1

 SCF Done:  E(RB3LYP) =  -1616.99333303     A.U. after   15 cycles
 SCF Done:  E(RB3LYP) =  -1616.99604672     A.U. after   14 cycles
 SCF Done:  E(RB3LYP) =  -1616.99862339     A.U. after   14 cycles
 SCF Done:  E(RB3LYP) =  -1616.99795444     A.U. after   16 cycles
 SCF Done:  E(RB3LYP) =  -1617.00430406     A.U. after   13 cycles
 SCF Done:  E(RB3LYP) =  -1617.00314743     A.U. after   14 cycles
 SCF Done:  E(RB3LYP) =  -1617.00493220     A.U. after   12 cycles
 SCF Done:  E(RB3LYP) =  -1617.00556586     A.U. after   12 cycles
 SCF Done:  E(RB3LYP) =  -1617.00633683     A.U. after   14 cycles
 SCF Done:  E(RB3LYP) =  -1617.00732399     A.U. after   12 cycles
 SCF Done:  E(RB3LYP) =  -1617.00802494     A.U. after    9 cycles
 SCF Done:  E(RB3LYP) =  -1617.00802505     A.U. after    8 cycles
 SCF Done:  E(RB3LYP) =  -1617.00802514     A.U. after    7 cycles
 SCF Done:  E(RB3LYP) =  -1617.00802520     A.U. after    8 cycles
 SCF Done:  E(RB3LYP) =  -1617.00802525     A.U. after    8 cycles
 SCF Done:  E(RB3LYP) =  -1617.00802527     A.U. after    7 cycles
 Optimization completed.
    -- Stationary point found.
 Normal termination of Gaussian 16 at Sat Dec 12 16:15:12 2020.

 --------------------------------------------------------------------
 #N Geom=AllCheck Guess=TCheck SCRF=Check GenChk RB3LYP/6-31G(d) Freq
 --------------------------------------------------------------------

 Structure from the checkpoint file:  "JID_10582.chk"
 -------------------------------
 CID_79213653_JID_10582_neutraal
 -------------------------------
 Charge =  0 Multiplicity = 1

 SCF Done:  E(RB3LYP) =  -1617.00802527     A.U. after    1 cycles

  Exact polarizability: 215.962 -31.414 175.060  29.534  22.997 148.183
 Approx polarizability: 346.324 -62.810 307.549  70.402  69.027 280.839

                      1                      2                      3
                      A                      A                      A
 Frequencies --     15.3623                30.5530                53.9587
 Red. masses --      8.4328                 7.1001                11.0249
 Frc consts  --      0.0012                 0.0039                 0.0189
 IR Inten    --      0.3136                 0.2395                 1.2525

                      4                      5                      6
                      A                      A                      A
 Frequencies --     57.6984                77.7815                99.1730
 Red. masses --      9.0134                 5.7303                 5.4878
 Frc consts  --      0.0177                 0.0204                 0.0318
 IR Inten    --      3.1485                 0.4775                 1.0719

                      7                      8                      9
                      A                      A                      A
 Frequencies --    104.2172               133.8254               156.7287
 Red. masses --      7.4364                 6.8952                 6.3496
 Frc consts  --      0.0476                 0.0728                 0.0919
 IR Inten    --      1.3841                 0.3496                 0.8819

                     10                     11                     12
                      A                      A                      A
 Frequencies --    172.3581               201.9162               257.1535
 Red. masses --      4.4250                 3.9127                 6.0830
 Frc consts  --      0.0775                 0.0940                 0.2370
 IR Inten    --      3.8085                 1.2290                 0.6711

                     13                     14                     15
                      A                      A                      A
 Frequencies --    286.5776               331.0575               352.1085
 Red. masses --      7.6236                 7.9478                 6.7010
 Frc consts  --      0.3689                 0.5132                 0.4895
 IR Inten    --      3.0269                 2.3039                 1.3619

                     16                     17                     18
                      A                      A                      A
 Frequencies --    378.2246               402.5602               443.2340
 Red. masses --      6.7180                 6.1387                 3.7334
 Frc consts  --      0.5662                 0.5861                 0.4321
 IR Inten    --      3.1093                 0.8987                 1.1952

                     19                     20                     21
                      A                      A                      A
 Frequencies --    454.1722               475.7080               486.8683
 Red. masses --      9.9605                 4.9929                 7.4057
 Frc consts  --      1.2105                 0.6657                 1.0343
 IR Inten    --     11.0352                 4.2044                 8.1625

                     22                     23                     24
                      A                      A                      A
 Frequencies --    495.4290               516.7621               531.0584
 Red. masses --      4.8573                 4.3698                 4.5428
 Frc consts  --      0.7024                 0.6875                 0.7549
 IR Inten    --     30.9747                10.3035                20.7759

                     25                     26                     27
                      A                      A                      A
 Frequencies --    574.3660               595.1247               598.9494
 Red. masses --      2.5086                 1.3829                 1.5536
 Frc consts  --      0.4876                 0.2886                 0.3284
 IR Inten    --      7.3879                12.3595                98.7944

                     28                     29                     30
                      A                      A                      A
 Frequencies --    644.2368               657.0317               701.7852
 Red. masses --      5.4635                 5.3248                 4.1335
 Frc consts  --      1.3360                 1.3543                 1.1994
 IR Inten    --     25.6820                 4.6347                 6.9925

                     31                     32                     33
                      A                      A                      A
 Frequencies --    714.0818               714.6940               730.0504
 Red. masses --      5.1521                 5.4321                 5.6422
 Frc consts  --      1.5478                 1.6348                 1.7718
 IR Inten    --     30.1647                31.1993                 2.9268

                     34                     35                     36
                      A                      A                      A
 Frequencies --    749.9116               754.3507               759.1928
 Red. masses --      5.6994                 4.0506                 1.4401
 Frc consts  --      1.8884                 1.3581                 0.4891
 IR Inten    --      5.4915                89.1796                12.7971

                     37                     38                     39
                      A                      A                      A
 Frequencies --    765.9396               801.6378               828.1229
 Red. masses --      5.4288                 2.5263                 1.5292
 Frc consts  --      1.8765                 0.9565                 0.6179
 IR Inten    --     15.4581                11.6061                17.2945

                     40                     41                     42
                      A                      A                      A
 Frequencies --    851.0106               872.4274               916.9775
 Red. masses --      4.7154                 1.3368                 1.4580
 Frc consts  --      2.0120                 0.5995                 0.7223
 IR Inten    --      8.0183                 0.1428                 0.9055

                     43                     44                     45
                      A                      A                      A
 Frequencies --    929.2547               939.7624               959.3780
 Red. masses --      2.9462                 1.5206                 1.7531
 Frc consts  --      1.4989                 0.7912                 0.9507
 IR Inten    --      8.1191                11.6291                13.1259

                     46                     47                     48
                      A                      A                      A
 Frequencies --    979.8768              1014.1596              1043.8256
 Red. masses --      1.2614                 3.8808                 2.6731
 Frc consts  --      0.7136                 2.3517                 1.7160
 IR Inten    --      0.1325                 1.6105                41.4706

                     49                     50                     51
                      A                      A                      A
 Frequencies --   1063.1469              1080.3389              1109.4771
 Red. masses --      2.7006                 3.4547                 2.2099
 Frc consts  --      1.7985                 2.3756                 1.6027
 IR Inten    --      6.0569                 8.4844               163.2393

                     52                     53                     54
                      A                      A                      A
 Frequencies --   1152.8212              1167.8644              1177.9140
 Red. masses --      1.6185                 1.4482                 2.2440
 Frc consts  --      1.2673                 1.1638                 1.8345
 IR Inten    --     24.0669                 3.0742                 5.6875

                     55                     56                     57
                      A                      A                      A
 Frequencies --   1195.7649              1224.8526              1230.3705
 Red. masses --      1.1131                 1.8154                 2.1699
 Frc consts  --      0.9377                 1.6047                 1.9353
 IR Inten    --      0.5232               282.4413                 5.0496

                     58                     59                     60
                      A                      A                      A
 Frequencies --   1267.3460              1280.8397              1303.1908
 Red. masses --      1.5838                 1.3269                 1.3466
 Frc consts  --      1.4988                 1.2826                 1.3474
 IR Inten    --      3.8481                50.5891                 5.9219

                     61                     62                     63
                      A                      A                      A
 Frequencies --   1326.4997              1331.7135              1345.6691
 Red. masses --      2.6831                 1.8397                 1.9284
 Frc consts  --      2.7816                 1.9223                 2.0574
 IR Inten    --    155.7755                 6.0112               150.7579

                     64                     65                     66
                      A                      A                      A
 Frequencies --   1360.1112              1389.7004              1407.1685
 Red. masses --      2.8318                 3.4379                 3.2220
 Frc consts  --      3.0864                 3.9118                 3.7590
 IR Inten    --      4.7356                 2.3273                93.5884

                     67                     68                     69
                      A                      A                      A
 Frequencies --   1478.3965              1493.8930              1516.8630
 Red. masses --      1.6283                 2.2624                 2.3633
 Frc consts  --      2.0969                 2.9748                 3.2038
 IR Inten    --     12.1356                16.2196                10.3572

                     70                     71                     72
                      A                      A                      A
 Frequencies --   1525.3221              1530.5282              1612.0140
 Red. masses --      4.7482                 1.2253                 5.8727
 Frc consts  --      6.5088                 1.6912                 8.9913
 IR Inten    --    286.6088                31.1555                 6.8392

                     73                     74                     75
                      A                      A                      A
 Frequencies --   1637.0797              1650.8991              1790.7549
 Red. masses --      6.1155                 5.9010                 8.5153
 Frc consts  --      9.6565                 9.4758                16.0887
 IR Inten    --      1.2614                12.3864               433.1234

                     76                     77                     78
                      A                      A                      A
 Frequencies --   1810.8656              3074.6133              3100.4868
 Red. masses --      9.7779                 1.0844                 1.0621
 Frc consts  --     18.8917                 6.0397                 6.0155
 IR Inten    --    331.4695                 5.2912                17.8102

                     79                     80                     81
                      A                      A                      A
 Frequencies --   3160.2063              3186.8741              3194.1463
 Red. masses --      1.1047                 1.0873                 1.0882
 Frc consts  --      6.5001                 6.5062                 6.5411
 IR Inten    --      8.3581                 2.7793                 4.4297

                     82                     83                     84
                      A                      A                      A
 Frequencies --   3207.4079              3217.8473              3247.6939
 Red. masses --      1.0927                 1.0972                 1.0908
 Frc consts  --      6.6228                 6.6935                 6.7784
 IR Inten    --     13.3533                15.0756                 1.2535

                     85                     86                     87
                      A                      A                      A
 Frequencies --   3262.9355              3557.8523              3701.9134
 Red. masses --      1.0967                 1.0748                 1.0642
 Frc consts  --      6.8795                 8.0160                 8.5925
 IR Inten    --      1.7946                34.9110                92.2076

 - Thermochemistry -
 -------------------
 Temperature   298.150 Kelvin.  Pressure   1.00000 Atm.
 Atom     1 has atomic number  6 and mass  12.00000

 Molecular mass:   305.01804 amu.
 Principal axes and moments of inertia in atomic units:
                           1         2         3
     Eigenvalues --  3971.269297441.834638932.22053
           X            0.99985  -0.01714   0.00114
           Y            0.01715   0.99971  -0.01678
           Z           -0.00085   0.01680   0.99986
 This molecule is an asymmetric top.
 Rotational symmetry number  1.
 Warning -- assumption of classical behavior for rotation
           may cause significant error
 Rotational temperatures (Kelvin)      0.02181     0.01164     0.00970
 Rotational constants (GHZ):           0.45445     0.24251     0.20205
 Zero-point vibrational energy     598037.2 (Joules/Mol)
                                  142.93433 (Kcal/Mol)
 Warning -- explicit consideration of  27 degrees of freedom as
           vibrations may cause significant error
 Vibrational temperatures:     22.10    43.96    77.63    83.02   111.91
          (Kelvin)            142.69   149.95   192.54   225.50   247.98
                              290.51   369.99   412.32   476.32   506.61
                              544.18   579.19   637.71   653.45   684.44
                              700.49   712.81   743.51   764.07   826.38
                              856.25   861.75   926.91   945.32  1009.71
                             1027.40  1028.29  1050.38  1078.96  1085.34
                             1092.31  1102.02  1153.38  1191.48  1224.41
                             1255.23  1319.33  1336.99  1352.11  1380.33
                             1409.82  1459.15  1501.83  1529.63  1554.37
                             1596.29  1658.65  1680.30  1694.76  1720.44
                             1762.29  1770.23  1823.43  1842.84  1875.00
                             1908.54  1916.04  1936.12  1956.90  1999.47
                             2024.60  2127.08  2149.38  2182.43  2194.60
                             2202.09  2319.33  2355.39  2375.28  2576.50
                             2605.43  4423.68  4460.91  4546.83  4585.20
                             4595.66  4614.74  4629.76  4672.71  4694.64
                             5118.96  5326.23

 Zero-point correction=                           0.227780 (Hartree/Particle)
 Thermal correction to Energy=                    0.245129
 Thermal correction to Enthalpy=                  0.246073
 Thermal correction to Gibbs Free Energy=         0.180076
 Sum of electronic and zero-point Energies=          -1616.780245
 Sum of electronic and thermal Energies=             -1616.762896
 Sum of electronic and thermal Enthalpies=           -1616.761952
 Sum of electronic and thermal Free Energies=        -1616.827950

                     E (Thermal)             CV                S
                      KCal/Mol        Cal/Mol-Kelvin    Cal/Mol-Kelvin
 Total                  153.821             66.133            138.904
 Electronic               0.000              0.000              0.000
 Translational            0.889              2.981             43.042
 Rotational               0.889              2.981             33.934
 Vibrational            152.043             60.171             61.928
 Vibration     1          0.593              1.986              7.158
 Vibration     2          0.594              1.984              5.793
 Vibration     3          0.596              1.976              4.667
 Vibration     4          0.596              1.974              4.534
 Vibration     5          0.599              1.964              3.946
 Vibration     6          0.604              1.950              3.471
 Vibration     7          0.605              1.946              3.374
 Vibration     8          0.613              1.920              2.890
 Vibration     9          0.620              1.895              2.589
 Vibration    10          0.626              1.876              2.410
 Vibration    11          0.639              1.837              2.116
 Vibration    12          0.667              1.751              1.681
 Vibration    13          0.684              1.699              1.494
 Vibration    14          0.713              1.613              1.255
 Vibration    15          0.729              1.571              1.157
 Vibration    16          0.749              1.517              1.046
 Vibration    17          0.768              1.465              0.953
 Vibration    18          0.803              1.376              0.817
 Vibration    19          0.813              1.352              0.783
 Vibration    20          0.832              1.304              0.722
 Vibration    21          0.843              1.279              0.692
 Vibration    22          0.851              1.260              0.670
 Vibration    23          0.872              1.213              0.618
 Vibration    24          0.886              1.181              0.585
 Vibration    25          0.931              1.087              0.496
 Vibration    26          0.953              1.042              0.458
 Vibration    27          0.957              1.034              0.451

 Optimization completed.
    -- Stationary point found.
 Normal termination of Gaussian 16 at Sat Dec 12 16:34:30 2020.

 ----------------------------------------------------------------------
 # B3LYP/6-311++G(d,p) empiricaldispersion=gd3bj scf=xqc pop=npa geom=c
 heck
 ----------------------------------------------------------------------

 ---------------------------------------
 CID_79213653_JID_10582_Energie_neutraal
 ---------------------------------------
 Structure from the checkpoint file:  "JID_10582.chk"
 Charge =  0 Multiplicity = 1

 SCF Done:  E(RB3LYP) =  -1617.29503131     A.U. after   17 cycles
 Normal termination of Gaussian 16 at Sat Dec 12 16:43:15 2020.

 ----------------------------------------------------------------------
 # B3LYP/6-311++G(d,p) empiricaldispersion=gd3bj scf=xqc pop=npa geom=c
 heck
 ----------------------------------------------------------------------

 -------------------------------------
 CID_79213653_JID_10582_Energie_kation
 -------------------------------------
 Structure from the checkpoint file:  "JID_10582.chk"
 Charge =  1 Multiplicity = 2

 SCF Done:  E(UB3LYP) =  -1617.01092644     A.U. after   26 cycles
 Normal termination of Gaussian 16 at Sat Dec 12 17:02:29 2020.
 Gaussian 16:  ES64L-G16RevA.03 25-Dec-2016

 ----------------------------------------------------------------------
 # B3LYP/6-311++G(d,p) empiricaldispersion=gd3bj scf=xqc pop=npa geom=c
 heck
 ----------------------------------------------------------------------

 ------------------------------------
 CID_79213653_JID_10582_Energie_anion
 ------------------------------------
 Structure from the checkpoint file:  "JID_10582.chk"
 Charge = -1 Multiplicity = 2

                         Standard orientation:
 ---------------------------------------------------------------------
 Center     Atomic      Atomic             Coordinates (Angstroms)
 Number     Number       Type             X           Y           Z
 ---------------------------------------------------------------------
      1          6           0       -3.071161    0.119451   -1.047046
      2          6           0       -2.553861    0.530646    0.360790
      3          6           0       -1.557323   -0.509456    0.826921
      4          6           0       -0.721617   -0.401531    1.934059
      5          6           0        0.133981   -1.454712    2.266096
      6          6           0        0.134938   -2.621317    1.499726
      7          6           0       -0.715052   -2.750651    0.399239
      8          6           0       -1.556463   -1.689078    0.072532
      9         16           0       -2.689445   -1.671517   -1.295648
     10          6           0       -2.091598    1.988242    0.338431
     11          8           0       -2.823117    2.885483    0.721442
     12          7           0       -0.845063    2.310669   -0.191457
     13          6           0        0.238418    1.489739   -0.529478
     14          6           0        0.313497    0.515726   -1.496925
     15          6           0        1.561415   -0.155904   -1.493656
     16          6           0        2.434780    0.332623   -0.550148
     17         16           0        1.721824    1.614233    0.389206
     18          6           0        3.811315   -0.067322   -0.267260
     19          8           0        4.521832    0.435414    0.582561
     20          8           0        4.224739   -1.086958   -1.063780
     21          1           0       -2.585230    0.698336   -1.835593
     22          1           0       -4.147653    0.270135   -1.132502
     23          1           0       -3.403886    0.542536    1.051127
     24          1           0       -0.719322    0.510517    2.525027
     25          1           0        0.801015   -1.360139    3.117050
     26          1           0        0.803989   -3.437581    1.756054
     27          1           0       -0.711272   -3.657325   -0.197819
     28          1           0       -0.664610    3.306114   -0.107802
     29          1           0       -0.496227    0.274764   -2.172113
     30          1           0        1.823350   -0.960659   -2.169074
     31          1           0        5.141976   -1.275115   -0.792563
 ---------------------------------------------------------------------

 SCF Done:  E(UB3LYP) =  -1617.31955542     A.U. after   27 cycles

 The electronic state is 2-A.
 Alpha  occ. eigenvalues --  -88.75643 -88.72674 -19.02927 -18.98799 -18.95391
 Alpha  occ. eigenvalues --  -14.23735 -10.17062 -10.14282 -10.11748 -10.10472
 Alpha  occ. eigenvalues --  -10.10272 -10.08516 -10.08380 -10.07754 -10.07415
 Alpha  occ. eigenvalues --  -10.07378 -10.07130 -10.04566 -10.03846 -10.02919
 Alpha  occ. eigenvalues --   -7.84269  -7.81337  -5.80649  -5.80295  -5.79664
 Alpha  occ. eigenvalues --   -5.77636  -5.77287  -5.76921  -0.96416  -0.94243
 Alpha  occ. eigenvalues --   -0.87009  -0.82312  -0.78151  -0.73115  -0.72281
 Alpha  occ. eigenvalues --   -0.67392  -0.63634  -0.61965  -0.60610  -0.59679
 Alpha  occ. eigenvalues --   -0.53289  -0.52346  -0.51026  -0.48625  -0.47906
 Alpha  occ. eigenvalues --   -0.44057  -0.42342  -0.40980  -0.39424  -0.37633
 Alpha  occ. eigenvalues --   -0.37050  -0.36080  -0.34711  -0.34418  -0.33588
 Alpha  occ. eigenvalues --   -0.32473  -0.31305  -0.31134  -0.30636  -0.29785
 Alpha  occ. eigenvalues --   -0.28333  -0.28161  -0.27011  -0.26515  -0.25543
 Alpha  occ. eigenvalues --   -0.25474  -0.25007  -0.23689  -0.23061  -0.21033
 Alpha  occ. eigenvalues --   -0.19283  -0.18886  -0.16741  -0.16334  -0.15140
 Alpha  occ. eigenvalues --   -0.13872  -0.12352  -0.11144  -0.09570   0.03177
 Alpha virt. eigenvalues --    0.07395   0.07496   0.07922   0.08638   0.09025
 Alpha virt. eigenvalues --    0.09236   0.09593   0.10221   0.10629   0.10783
 Alpha virt. eigenvalues --    0.11653   0.12445   0.12813   0.12971   0.13796

  Beta  occ. eigenvalues --  -88.75639 -88.72623 -19.02869 -18.98713 -18.95124
  Beta  occ. eigenvalues --  -14.23797 -10.16961 -10.14055 -10.11730 -10.10466
  Beta  occ. eigenvalues --  -10.10279 -10.08345 -10.08103 -10.07754 -10.07371
  Beta  occ. eigenvalues --  -10.07357 -10.07137 -10.04371 -10.03922 -10.02699
  Beta  occ. eigenvalues --   -7.84265  -7.81292  -5.80638  -5.80293  -5.79659
  Beta  occ. eigenvalues --   -5.77619  -5.77269  -5.76744  -0.96153  -0.94085
  Beta  occ. eigenvalues --   -0.86607  -0.82099  -0.78104  -0.72830  -0.72216
  Beta  occ. eigenvalues --   -0.67342  -0.63572  -0.61887  -0.60148  -0.59243
  Beta  occ. eigenvalues --   -0.53182  -0.52005  -0.50783  -0.48576  -0.47744
  Beta  occ. eigenvalues --   -0.43883  -0.42053  -0.40888  -0.39205  -0.37588
  Beta  occ. eigenvalues --   -0.36926  -0.36022  -0.34591  -0.34160  -0.33464
  Beta  occ. eigenvalues --   -0.32263  -0.31057  -0.30492  -0.30060  -0.29664
  Beta  occ. eigenvalues --   -0.28203  -0.28061  -0.26832  -0.26362  -0.25445
  Beta  occ. eigenvalues --   -0.25247  -0.24880  -0.23169  -0.22687  -0.20727
  Beta  occ. eigenvalues --   -0.19177  -0.17840  -0.16297  -0.16188  -0.14944
  Beta  occ. eigenvalues --   -0.13598  -0.11767  -0.10566  -0.08002
  Beta virt. eigenvalues --    0.07275   0.07473   0.07961   0.08409   0.08875
  Beta virt. eigenvalues --    0.09206   0.09391   0.09655   0.10312   0.10752
  Beta virt. eigenvalues --    0.11255   0.11642   0.12468   0.12873   0.13075

 Mulliken charges and spin densities:
               1          2
     1  C   -0.395382  -0.042145
     2  C    0.134077   0.011252
     3  C    0.544287  -0.078390
     4  C   -0.278837   0.024059
     5  C   -0.317254   0.022482
     6  C   -0.202565  -0.017671
     7  C   -0.279371   0.036186
     8  C    0.216277   0.017085
     9  S   -0.346606   0.035849
    10  C   -0.370721   0.059305
    11  O   -0.317721   0.027141
    12  N   -0.284008  -0.026921
    13  C   -0.082157   0.190034
    14  C   -0.298305  -0.053546
    15  C   -0.515629   0.210504
    16  C   -0.312373   0.012940
    17  S    0.215263   0.164144
    18  C    0.428840   0.174024
    19  O   -0.395357   0.093360
    20  O   -0.209508   0.012412
    21  H    0.207717   0.001795
    22  H    0.203415   0.013328
    23  H    0.245667   0.015377
    24  H    0.169204   0.003228
    25  H    0.144664   0.019288
    26  H    0.133588   0.005392
    27  H    0.137079   0.025635
    28  H    0.280448   0.046433
    29  H    0.124898   0.010816
    30  H    0.162423  -0.012907
    31  H    0.257948  -0.000486
 Sum of Mulliken charges =  -1.00000   1.00000

 Dipole moment (field-independent basis, Debye):
    X=             -4.4122    Y=             -3.5757    Z=             -0.6947  Tot=              5.7215
 Quadrupole moment (field-independent basis, Debye-Ang):
   XX=           -183.9134   YY=           -153.5210   ZZ=           -143.1120
   XY=             -3.5988   XZ=              1.5287   YZ=             -4.7195

 Summary of Natural Population Analysis:

                                       Natural Population
                Natural  -----------------------------------------------
    Atom  No    Charge         Core      Valence    Rydberg      Total
 -----------------------------------------------------------------------
      C    1   -0.23058      0.99959     2.22387    0.00713     3.23058
      C    2   -0.15903      0.99952     2.14513    0.01439     3.15903
      C    3   -0.02144      0.99943     2.00971    0.01230     3.02144
      C    4   -0.08361      0.99951     2.07585    0.00825     3.08361
      C    5   -0.10189      0.99957     2.09348    0.00883     3.10189
      C    6   -0.08643      0.99958     2.07839    0.00847     3.08643
      C    7   -0.11206      0.99950     2.10351    0.00906     3.11206
      C    8   -0.07609      0.99935     2.06367    0.01307     3.07609
      S    9    0.11425      4.99955     2.86761    0.01860     7.88575
      C   10    0.36449      0.99965     1.61234    0.02352     2.63551
      O   11   -0.31618      0.99987     3.31005    0.00626     4.31618
      N   12   -0.32676      0.99962     2.81562    0.01151     3.82676
      C   13    0.05218      0.99948     1.93141    0.01693     2.94782
      C   14   -0.16171      0.99947     2.14997    0.01226     3.16171
      C   15   -0.05915      0.99950     2.04872    0.01093     3.05915
      C   16   -0.13106      0.99943     2.11473    0.01690     3.13106
      S   17    0.22125      4.99939     2.75877    0.02059     7.77875
      C   18    0.40950      0.99959     1.56770    0.02321     2.59050
      O   19   -0.30556      0.99987     3.29915    0.00654     4.30556
      O   20   -0.35010      0.99988     3.34459    0.00563     4.35010
      H   21    0.10362      0.00000     0.39521    0.00117     0.39638
      H   22    0.10488      0.00000     0.39421    0.00091     0.39512
      H   23    0.11691      0.00000     0.38179    0.00130     0.38309
      H   24    0.10418      0.00000     0.39464    0.00118     0.39582
      H   25    0.10040      0.00000     0.39867    0.00093     0.39960
      H   26    0.09715      0.00000     0.40194    0.00091     0.40285
      H   27    0.09966      0.00000     0.39899    0.00135     0.40034
      H   28    0.19810      0.00000     0.30012    0.00178     0.30190
      H   29    0.10070      0.00000     0.39794    0.00136     0.39930
      H   30    0.10354      0.00000     0.39557    0.00090     0.39646
      H   31    0.23085      0.00000     0.26632    0.00284     0.26915
 =======================================================================
   * Total *   -0.00000     27.99136    50.73965    0.26900    79.00000

 Normal termination of Gaussian 16 at Sat Dec 12 17:21:31 2020.
