 Gaussian 16, Revision A.03,

 -----------------------------------------------------------
 # opt freq B3LYP/6-31G(d) empiricaldispersion=gd3bj scf=xqc
 -----------------------------------------------------------

 ------------------------------
 CID_66520043_JID_3864_neutraal
 ------------------------------
 Symbolic Z-matrix:
 Charge =  0 Multiplicity = 1

 SCF Done:  E(RB3LYP) =  -898.630829052     A.U. after   15 cycles
 SCF Done:  E(RB3LYP) =  -898.634414361     A.U. after   12 cycles
 SCF Done:  E(RB3LYP) =  -898.635132187     A.U. after   12 cycles
 SCF Done:  E(RB3LYP) =  -898.635236191     A.U. after   11 cycles
 SCF Done:  E(RB3LYP) =  -898.635266209     A.U. after   11 cycles
 SCF Done:  E(RB3LYP) =  -898.635274925     A.U. after    9 cycles
 SCF Done:  E(RB3LYP) =  -898.635276746     A.U. after    8 cycles
 SCF Done:  E(RB3LYP) =  -898.635277055     A.U. after    7 cycles
 SCF Done:  E(RB3LYP) =  -898.635277672     A.U. after    7 cycles
 SCF Done:  E(RB3LYP) =  -898.635278911     A.U. after    9 cycles
 SCF Done:  E(RB3LYP) =  -898.635301621     A.U. after    7 cycles
 SCF Done:  E(RB3LYP) =  -898.635301661     A.U. after    7 cycles
 SCF Done:  E(RB3LYP) =  -898.635301685     A.U. after    7 cycles
 SCF Done:  E(RB3LYP) =  -898.635301716     A.U. after    7 cycles
 SCF Done:  E(RB3LYP) =  -898.635301723     A.U. after    6 cycles
 Optimization completed.
    -- Stationary point found.
 Normal termination of Gaussian 16 at Mon Dec 14 18:45:30 2020.

 --------------------------------------------------------------------
 #N Geom=AllCheck Guess=TCheck SCRF=Check GenChk RB3LYP/6-31G(d) Freq
 --------------------------------------------------------------------

 Structure from the checkpoint file:  "JID_3864.chk"
 ------------------------------
 CID_66520043_JID_3864_neutraal
 ------------------------------
 Charge =  0 Multiplicity = 1

 SCF Done:  E(RB3LYP) =  -898.635301723     A.U. after    1 cycles

  Exact polarizability: 202.586   3.948 136.592  -4.588  -0.548  61.110
 Approx polarizability: 299.264   8.540 238.961 -10.815  -3.929  96.936

                      1                      2                      3
                      A                      A                      A
 Frequencies --     17.3595                46.2689                83.7939
 Red. masses --      1.0254                 4.5922                 5.8362
 Frc consts  --      0.0002                 0.0058                 0.0241
 IR Inten    --      0.2195                 0.4130                 0.0840

                      4                      5                      6
                      A                      A                      A
 Frequencies --    101.6438               214.9300               237.4901
 Red. masses --      4.7646                 3.0178                 1.3986
 Frc consts  --      0.0290                 0.0821                 0.0465
 IR Inten    --      0.3608                 1.0405                70.2337

                      7                      8                      9
                      A                      A                      A
 Frequencies --    240.1230               281.0877               281.5312
 Red. masses --      2.6920                 5.7086                 4.5753
 Frc consts  --      0.0915                 0.2657                 0.2137
 IR Inten    --     43.3212                 2.2621                 2.7758

                     10                     11                     12
                      A                      A                      A
 Frequencies --    301.6255               381.2239               432.2983
 Red. masses --      6.0677                 4.2462                 4.0013
 Frc consts  --      0.3252                 0.3636                 0.4406
 IR Inten    --      0.2639                 3.5335                 4.1636

                     13                     14                     15
                      A                      A                      A
 Frequencies --    456.4401               512.4959               531.7554
 Red. masses --      3.2998                 4.5310                 4.6109
 Frc consts  --      0.4050                 0.7012                 0.7682
 IR Inten    --      2.0016                 1.6881                 0.9633

                     16                     17                     18
                      A                      A                      A
 Frequencies --    548.2949               572.8220               656.7523
 Red. masses --      5.4087                 5.7597                 2.6681
 Frc consts  --      0.9580                 1.1135                 0.6780
 IR Inten    --      3.1336                 2.3164                 9.2803

                     19                     20                     21
                      A                      A                      A
 Frequencies --    667.0749               701.8275               720.2789
 Red. masses --      7.4731                 1.6342                 3.4920
 Frc consts  --      1.9593                 0.4743                 1.0674
 IR Inten    --     11.1368                 9.2863                12.8437

                     22                     23                     24
                      A                      A                      A
 Frequencies --    726.7300               786.4251               793.3620
 Red. masses --      2.0239                 1.4278                 4.3217
 Frc consts  --      0.6298                 0.5203                 1.6027
 IR Inten    --     14.4308                59.2825                22.4475

                     25                     26                     27
                      A                      A                      A
 Frequencies --    812.4541               873.2665               900.2938
 Red. masses --      1.8696                 4.1202                 1.3117
 Frc consts  --      0.7271                 1.8512                 0.6264
 IR Inten    --      7.9673                 5.6839                 2.6774

                     28                     29                     30
                      A                      A                      A
 Frequencies --    919.9759               956.5262               975.4354
 Red. masses --      1.4472                 3.6086                 1.2784
 Frc consts  --      0.7216                 1.9453                 0.7167
 IR Inten    --      2.3481                 2.5561                 0.2158

                     31                     32                     33
                      A                      A                      A
 Frequencies --   1020.5120              1028.8718              1075.4590
 Red. masses --      4.8623                 1.6078                 1.5202
 Frc consts  --      2.9835                 1.0028                 1.0359
 IR Inten    --      0.1224                 1.2750                 6.9105

                     34                     35                     36
                      A                      A                      A
 Frequencies --   1082.0355              1131.4075              1144.7593
 Red. masses --      1.8194                 1.5368                 2.1721
 Frc consts  --      1.2551                 1.1590                 1.6771
 IR Inten    --      5.9680                 1.7779               215.7415

                     37                     38                     39
                      A                      A                      A
 Frequencies --   1205.0005              1214.3270              1226.4681
 Red. masses --      1.2872                 1.3511                 1.3980
 Frc consts  --      1.1012                 1.1739                 1.2390
 IR Inten    --      0.1107                 2.1579                10.7577

                     40                     41                     42
                      A                      A                      A
 Frequencies --   1277.4030              1327.2837              1360.4650
 Red. masses --      2.6590                 2.2889                 2.7125
 Frc consts  --      2.5564                 2.3758                 2.9580
 IR Inten    --      3.1150                 1.9032                18.5755

                     43                     44                     45
                      A                      A                      A
 Frequencies --   1366.0397              1441.1561              1443.1362
 Red. masses --      2.0836                 2.0555                 1.5240
 Frc consts  --      2.2908                 2.5153                 1.8701
 IR Inten    --      0.2120                 1.2897                 0.3989

                     46                     47                     48
                      A                      A                      A
 Frequencies --   1464.9442              1516.4070              1524.2094
 Red. masses --      2.5341                 1.0474                 1.2078
 Frc consts  --      3.2042                 1.4191                 1.6532
 IR Inten    --      2.0334                 5.1705                 2.2644

                     49                     50                     51
                      A                      A                      A
 Frequencies --   1538.4604              1557.1903              1617.5999
 Red. masses --      3.3505                 3.5766                 7.0405
 Frc consts  --      4.6723                 5.1098                10.8542
 IR Inten    --     37.0167               127.5870               116.6996

                     52                     53                     54
                      A                      A                      A
 Frequencies --   1645.3854              1667.5088              3043.8486
 Red. masses --      5.5663                 5.6466                 1.0384
 Frc consts  --      8.8788                 9.2507                 5.6683
 IR Inten    --     20.9043                28.9745                34.0339

                     55                     56                     57
                      A                      A                      A
 Frequencies --   3098.1545              3125.7851              3177.2627
 Red. masses --      1.0990                 1.1017                 1.0866
 Frc consts  --      6.2152                 6.3421                 6.4628
 IR Inten    --     20.9177                16.7077                 5.5856

                     58                     59                     60
                      A                      A                      A
 Frequencies --   3185.1084              3192.6282              3207.9405
 Red. masses --      1.0895                 1.0905                 1.0954
 Frc consts  --      6.5119                 6.5488                 6.6417
 IR Inten    --     15.1686                22.9056                18.9830

                     61                     62                     63
                      A                      A                      A
 Frequencies --   3217.0888              3275.7043              3745.2669
 Red. masses --      1.0925                 1.0932                 1.0658
 Frc consts  --      6.6619                 6.9113                 8.8083
 IR Inten    --      7.8407                 1.6238                58.1818

 - Thermochemistry -
 -------------------
 Temperature   298.150 Kelvin.  Pressure   1.00000 Atm.
 Atom     1 has atomic number  6 and mass  12.00000

 Molecular mass:   190.04524 amu.
 Principal axes and moments of inertia in atomic units:
                           1         2         3
     Eigenvalues --  1059.606145061.632425966.40215
           X            0.99997   0.00687   0.00351
           Y           -0.00690   0.99994   0.00827
           Z           -0.00346  -0.00830   0.99996
 This molecule is an asymmetric top.
 Rotational symmetry number  1.
 Warning -- assumption of classical behavior for rotation
           may cause significant error
 Rotational temperatures (Kelvin)      0.08174     0.01711     0.01452
 Rotational constants (GHZ):           1.70322     0.35655     0.30248
 Zero-point vibrational energy     471785.7 (Joules/Mol)
                                  112.75948 (Kcal/Mol)
 Warning -- explicit consideration of  17 degrees of freedom as
           vibrations may cause significant error
 Vibrational temperatures:     24.98    66.57   120.56   146.24   309.24
          (Kelvin)            341.70   345.48   404.42   405.06   433.97
                              548.50   621.98   656.72   737.37   765.08
                              788.87   824.16   944.92   959.77  1009.77
                             1036.32  1045.60  1131.49  1141.47  1168.94
                             1256.44  1295.32  1323.64  1376.23  1403.43
                             1468.29  1480.32  1547.35  1556.81  1627.84
                             1647.05  1733.73  1747.15  1764.61  1837.90
                             1909.67  1957.41  1965.43  2073.50  2076.35
                             2107.73  2181.77  2193.00  2213.50  2240.45
                             2327.37  2367.34  2399.17  4379.42  4457.55
                             4497.31  4571.37  4582.66  4593.48  4615.51
                             4628.67  4713.01  5388.60

 Zero-point correction=                           0.179694 (Hartree/Particle)
 Thermal correction to Energy=                    0.191626
 Thermal correction to Enthalpy=                  0.192570
 Thermal correction to Gibbs Free Energy=         0.139759
 Sum of electronic and zero-point Energies=           -898.455608
 Sum of electronic and thermal Energies=              -898.443676
 Sum of electronic and thermal Enthalpies=            -898.442732
 Sum of electronic and thermal Free Energies=         -898.495542

                     E (Thermal)             CV                S
                      KCal/Mol        Cal/Mol-Kelvin    Cal/Mol-Kelvin
 Total                  120.247             45.294            111.150
 Electronic               0.000              0.000              0.000
 Translational            0.889              2.981             41.632
 Rotational               0.889              2.981             31.837
 Vibrational            118.470             39.332             37.680
 Vibration     1          0.593              1.986              6.915
 Vibration     2          0.595              1.979              4.971
 Vibration     3          0.601              1.960              3.800
 Vibration     4          0.604              1.948              3.423
 Vibration     5          0.645              1.818              2.001
 Vibration     6          0.656              1.783              1.822
 Vibration     7          0.657              1.779              1.802
 Vibration     8          0.681              1.709              1.527
 Vibration     9          0.681              1.708              1.524
 Vibration    10          0.694              1.671              1.408
 Vibration    11          0.751              1.510              1.034
 Vibration    12          0.793              1.400              0.851
 Vibration    13          0.815              1.347              0.777
 Vibration    14          0.868              1.222              0.628
 Vibration    15          0.887              1.180              0.583
 Vibration    16          0.904              1.143              0.548
 Vibration    17          0.929              1.090              0.499

                           ! Non-Optimized Parameters !
 Normal termination of Gaussian 16 at Mon Dec 14 18:50:35 2020.

 ----------------------------------------------------------------------
 # B3LYP/6-311++G(d,p) empiricaldispersion=gd3bj scf=xqc pop=npa geom=c
 heck
 ----------------------------------------------------------------------

 --------------------------------------
 CID_66520043_JID_3864_Energie_neutraal
 --------------------------------------
 Structure from the checkpoint file:  "JID_3864.chk"
 Charge =  0 Multiplicity = 1

 SCF Done:  E(RB3LYP) =  -898.800443444     A.U. after   17 cycles
 Normal termination of Gaussian 16 at Mon Dec 14 18:53:08 2020.

 ----------------------------------------------------------------------
 # B3LYP/6-311++G(d,p) empiricaldispersion=gd3bj scf=xqc pop=npa geom=c
 heck
 ----------------------------------------------------------------------

 ------------------------------------
 CID_66520043_JID_3864_Energie_kation
 ------------------------------------
 Structure from the checkpoint file:  "JID_3864.chk"
 Charge =  1 Multiplicity = 2

 SCF Done:  E(UB3LYP) =  -898.524369009     A.U. after   26 cycles
 Normal termination of Gaussian 16 at Mon Dec 14 18:58:43 2020.
 Gaussian 16:  ES64L-G16RevA.03 25-Dec-2016

 ----------------------------------------------------------------------
 # B3LYP/6-311++G(d,p) empiricaldispersion=gd3bj scf=xqc pop=npa geom=c
 heck
 ----------------------------------------------------------------------

 -----------------------------------
 CID_66520043_JID_3864_Energie_anion
 -----------------------------------
 Structure from the checkpoint file:  "JID_3864.chk"
 Charge = -1 Multiplicity = 2

                         Standard orientation:
 ---------------------------------------------------------------------
 Center     Atomic      Atomic             Coordinates (Angstroms)
 Number     Number       Type             X           Y           Z
 ---------------------------------------------------------------------
      1          6           0        3.846054    1.898105    0.402562
      2          6           0        2.999240    0.679751    0.122965
      3          6           0        1.605343    0.750747    0.168360
      4          6           0        0.797918   -0.374242   -0.063232
      5          6           0        1.423004   -1.595713   -0.354409
      6          6           0        2.812404   -1.681505   -0.399558
      7          6           0        3.597333   -0.553734   -0.165373
      8          6           0       -0.671272   -0.269527    0.002029
      9          6           0       -1.499277   -1.290094    0.393068
     10         16           0       -3.181855   -0.831682    0.372852
     11          6           0       -2.753341    0.769811   -0.181229
     12          6           0       -1.405589    0.925780   -0.329391
     13          8           0       -3.772290    1.636584   -0.411681
     14          1           0        3.245631    2.813092    0.393524
     15          1           0        4.328895    1.829210    1.385795
     16          1           0        4.643692    2.009219   -0.340831
     17          1           0        1.134020    1.698955    0.413384
     18          1           0        0.815531   -2.468706   -0.572992
     19          1           0        3.285933   -2.631133   -0.633630
     20          1           0        4.681299   -0.627339   -0.210462
     21          1           0       -1.220213   -2.273254    0.743559
     22          1           0       -0.944227    1.835326   -0.698414
     23          1           0       -3.393463    2.472587   -0.726879
 ---------------------------------------------------------------------

 SCF Done:  E(UB3LYP) =  -898.791271138     A.U. after   33 cycles
 SCF Done:  E(UB3LYP) =  -898.791271138     a.u. after    1 cycles

 The electronic state is 2-A.
 Alpha  occ. eigenvalues --  -88.76124 -19.04849 -10.14416 -10.07283 -10.07220
 Alpha  occ. eigenvalues --  -10.06892 -10.06808 -10.06703 -10.06659 -10.05932
 Alpha  occ. eigenvalues --  -10.05733 -10.05662 -10.05351  -7.84775  -5.81076
 Alpha  occ. eigenvalues --   -5.80725  -5.80333  -0.96025  -0.76686  -0.74556
 Alpha  occ. eigenvalues --   -0.67319  -0.65298  -0.61515  -0.59836  -0.57864
 Alpha  occ. eigenvalues --   -0.50779  -0.48772  -0.47580  -0.43696  -0.41268
 Alpha  occ. eigenvalues --   -0.39267  -0.35931  -0.35129  -0.32134  -0.31940
 Alpha  occ. eigenvalues --   -0.31660  -0.30894  -0.30224  -0.29422  -0.28004
 Alpha  occ. eigenvalues --   -0.26382  -0.25764  -0.24306  -0.23262  -0.22836
 Alpha  occ. eigenvalues --   -0.22651  -0.16573  -0.14117  -0.12489  -0.09658
 Alpha  occ. eigenvalues --    0.04730
 Alpha virt. eigenvalues --    0.06654   0.06845   0.07854   0.08823   0.09136
 Alpha virt. eigenvalues --    0.10021   0.10524   0.10902   0.11294   0.12121
 Alpha virt. eigenvalues --    0.12222   0.13099   0.13301   0.13655   0.14910

  Beta  occ. eigenvalues --  -88.76110 -19.04769 -10.14400 -10.07275 -10.07094
  Beta  occ. eigenvalues --  -10.06876 -10.06709 -10.06686 -10.06669 -10.05894
  Beta  occ. eigenvalues --  -10.05708 -10.05543 -10.05330  -7.84761  -5.81069
  Beta  occ. eigenvalues --   -5.80718  -5.80291  -0.95860  -0.76562  -0.74440
  Beta  occ. eigenvalues --   -0.67185  -0.65178  -0.61416  -0.59703  -0.57735
  Beta  occ. eigenvalues --   -0.50577  -0.48699  -0.47413  -0.43570  -0.41188
  Beta  occ. eigenvalues --   -0.39176  -0.35841  -0.35036  -0.32053  -0.31864
  Beta  occ. eigenvalues --   -0.31586  -0.30780  -0.30175  -0.29343  -0.27929
  Beta  occ. eigenvalues --   -0.26289  -0.25489  -0.24217  -0.23171  -0.22599
  Beta  occ. eigenvalues --   -0.22564  -0.16156  -0.13849  -0.12218  -0.09176
  Beta virt. eigenvalues --    0.06900   0.07780   0.07889   0.08510   0.09086
  Beta virt. eigenvalues --    0.09257   0.10185   0.10661   0.11142   0.11523
  Beta virt. eigenvalues --    0.12235   0.12431   0.13171   0.13364   0.14197

 Mulliken charges and spin densities:
               1          2
     1  C    0.547454  -1.019242
     2  C    0.147277   0.572881
     3  C   -0.639065   0.036563
     4  C    1.048586  -0.464329
     5  C   -0.832975  -0.277087
     6  C   -0.217628   0.333929
     7  C   -0.372233  -0.357826
     8  C    1.139157  -1.089440
     9  C   -0.004259   0.795964
    10  S   -0.258601  -0.202664
    11  C    1.914011  -2.450004
    12  C   -2.043567   2.308812
    13  O   -0.217158   0.011499
    14  H   -0.135511   0.284903
    15  H    0.127402   0.017414
    16  H   -0.162833   0.302038
    17  H    0.074552   0.016249
    18  H    0.125814  -0.040542
    19  H    0.043398   0.092705
    20  H    0.026908   0.088153
    21  H    0.155547   0.079986
    22  H   -0.915064   1.100499
    23  H   -0.551211   0.859540
 Sum of Mulliken charges =  -1.00000   1.00000

 Dipole moment (field-independent basis, Debye):
    X=              3.2492    Y=             -6.7913    Z=              2.1267  Tot=              7.8232
 Quadrupole moment (field-independent basis, Debye-Ang):
   XX=           -148.9405   YY=           -123.0952   ZZ=           -104.4479
   XY=             11.9068   XZ=             -2.4829   YZ=              6.8199

 Summary of Natural Population Analysis:

                                       Natural Population
                Natural  -----------------------------------------------
    Atom  No    Charge         Core      Valence    Rydberg      Total
 -----------------------------------------------------------------------
      C    1   -0.29224      0.99964     2.28703    0.00557     3.29224
      C    2   -0.01668      0.99952     2.00749    0.00968     3.01668
      C    3   -0.09208      0.99949     2.08374    0.00885     3.09208
      C    4   -0.00473      0.99949     1.99532    0.00992     3.00473
      C    5   -0.09341      0.99953     2.08644    0.00744     3.09341
      C    6   -0.10348      0.99957     2.09409    0.00983     3.10348
      C    7   -0.09007      0.99951     2.08157    0.00899     3.09007
      C    8   -0.04097      0.99948     2.02974    0.01175     3.04097
      C    9   -0.17479      0.99947     2.16620    0.00912     3.17479
      S   10    0.17984      4.99942     2.79966    0.02108     7.82016
      C   11    0.08606      0.99941     1.89494    0.01959     2.91394
      C   12   -0.17240      0.99942     2.16018    0.01280     3.17240
      O   13   -0.34079      0.99987     3.33200    0.00892     4.34079
      H   14    0.10313      0.00000     0.39596    0.00091     0.39687
      H   15    0.09967      0.00000     0.39950    0.00083     0.40033
      H   16    0.10239      0.00000     0.39645    0.00117     0.39761
      H   17    0.09981      0.00000     0.39860    0.00159     0.40019
      H   18    0.09704      0.00000     0.40140    0.00157     0.40296
      H   19    0.09467      0.00000     0.40453    0.00080     0.40533
      H   20    0.09355      0.00000     0.40557    0.00087     0.40645
      H   21    0.10475      0.00000     0.39424    0.00101     0.39525
      H   22    0.11238      0.00000     0.38580    0.00182     0.38762
      H   23    0.24835      0.00000     0.21821    0.03343     0.25165
 =======================================================================
   * Total *    0.00000     16.99380    32.81865    0.18755    50.00000

 Normal termination of Gaussian 16 at Mon Dec 14 19:05:45 2020.
