 Gaussian 16, Revision A.03,

 -----------------------------------------------------------
 # opt freq B3LYP/6-31G(d) empiricaldispersion=gd3bj scf=xqc
 -----------------------------------------------------------

 -------------------------------
 CID_100940870_JID_7061_neutraal
 -------------------------------
 Symbolic Z-matrix:
 Charge =  0 Multiplicity = 1

 SCF Done:  E(RB3LYP) =  -824.465857693     A.U. after   15 cycles
 SCF Done:  E(RB3LYP) =  -824.469477303     A.U. after   14 cycles
 SCF Done:  E(RB3LYP) =  -824.467140198     A.U. after   14 cycles
 SCF Done:  E(RB3LYP) =  -824.469855990     A.U. after   13 cycles
 SCF Done:  E(RB3LYP) =  -824.471431955     A.U. after   12 cycles
 SCF Done:  E(RB3LYP) =  -824.471746723     A.U. after   12 cycles
 SCF Done:  E(RB3LYP) =  -824.471724700     A.U. after   12 cycles
 SCF Done:  E(RB3LYP) =  -824.471968586     A.U. after   11 cycles
 SCF Done:  E(RB3LYP) =  -824.472034621     A.U. after   11 cycles
 SCF Done:  E(RB3LYP) =  -824.472062930     A.U. after   11 cycles
 SCF Done:  E(RB3LYP) =  -824.472084892     A.U. after    7 cycles
 SCF Done:  E(RB3LYP) =  -824.472085224     A.U. after    9 cycles
 SCF Done:  E(RB3LYP) =  -824.472085308     A.U. after    7 cycles
 SCF Done:  E(RB3LYP) =  -824.472085371     A.U. after    7 cycles
 SCF Done:  E(RB3LYP) =  -824.472085381     A.U. after    6 cycles
 Optimization completed.
    -- Stationary point found.
 Normal termination of Gaussian 16 at Fri Dec 11 11:58:04 2020.

 --------------------------------------------------------------------
 #N Geom=AllCheck Guess=TCheck SCRF=Check GenChk RB3LYP/6-31G(d) Freq
 --------------------------------------------------------------------

 Structure from the checkpoint file:  "JID_7061.chk"
 -------------------------------
 CID_100940870_JID_7061_neutraal
 -------------------------------
 Charge =  0 Multiplicity = 1

 SCF Done:  E(RB3LYP) =  -824.472085381     A.U. after    1 cycles

  Exact polarizability: 146.043  -1.859 141.466  -5.292   2.318 120.215
 Approx polarizability: 188.123  -2.013 207.864 -17.078  -0.051 187.621

                      1                      2                      3
                      A                      A                      A
 Frequencies --     10.3186                32.6090                40.2161
 Red. masses --      4.0812                 7.0446                 3.5653
 Frc consts  --      0.0003                 0.0044                 0.0034
 IR Inten    --      0.0277                 0.2668                 2.2763

                      4                      5                      6
                      A                      A                      A
 Frequencies --     51.9211                72.4395                78.6238
 Red. masses --      5.2264                 4.7595                 4.0493
 Frc consts  --      0.0083                 0.0147                 0.0147
 IR Inten    --      2.7682                 0.2323                 1.5961

                      7                      8                      9
                      A                      A                      A
 Frequencies --     91.3511               125.8500               166.2733
 Red. masses --      3.8595                 3.5643                 2.6912
 Frc consts  --      0.0190                 0.0333                 0.0438
 IR Inten    --      0.9092                 0.9385                 0.1405

                     10                     11                     12
                      A                      A                      A
 Frequencies --    187.5562               206.2670               221.3279
 Red. masses --      4.0517                 2.4844                 1.1559
 Frc consts  --      0.0840                 0.0623                 0.0334
 IR Inten    --      0.9555                 4.8029                 0.4540

                     13                     14                     15
                      A                      A                      A
 Frequencies --    227.3887               241.2617               249.1353
 Red. masses --      3.6263                 1.4693                 1.4558
 Frc consts  --      0.1105                 0.0504                 0.0532
 IR Inten    --      3.0465                 2.3066                 2.9524

                     16                     17                     18
                      A                      A                      A
 Frequencies --    278.2851               294.8966               322.8973
 Red. masses --      1.4094                 2.7649                 2.4218
 Frc consts  --      0.0643                 0.1417                 0.1488
 IR Inten    --      2.0192                 2.4756                 0.5745

                     19                     20                     21
                      A                      A                      A
 Frequencies --    335.2620               388.7530               395.9071
 Red. masses --      2.1962                 3.1338                 3.8201
 Frc consts  --      0.1454                 0.2790                 0.3528
 IR Inten    --      0.8668                 3.0847                19.3781

                     22                     23                     24
                      A                      A                      A
 Frequencies --    432.9758               449.3814               492.8639
 Red. masses --      2.7424                 2.5734                 2.5714
 Frc consts  --      0.3029                 0.3062                 0.3680
 IR Inten    --      0.2760                27.1746                22.0412

                     25                     26                     27
                      A                      A                      A
 Frequencies --    544.2486               551.6889               585.9665
 Red. masses --      2.1800                 4.0836                 4.7474
 Frc consts  --      0.3805                 0.7323                 0.9604
 IR Inten    --     54.7079                45.5065                 8.5777

                     28                     29                     30
                      A                      A                      A
 Frequencies --    606.3389               617.7623               677.2026
 Red. masses --      4.6778                 3.3834                 3.8395
 Frc consts  --      1.0133                 0.7608                 1.0374
 IR Inten    --      2.7878                 4.5856                 4.5720

                     31                     32                     33
                      A                      A                      A
 Frequencies --    692.3786               703.1226               772.0225
 Red. masses --      2.8052                 3.1947                 1.4148
 Frc consts  --      0.7923                 0.9306                 0.4968
 IR Inten    --      0.8162                 5.1597                11.8497

                     34                     35                     36
                      A                      A                      A
 Frequencies --    810.7523               830.3534               850.9210
 Red. masses --      3.2434                 2.6592                 3.5028
 Frc consts  --      1.2561                 1.0803                 1.4943
 IR Inten    --     10.0488                 0.3890                 4.3366

                     37                     38                     39
                      A                      A                      A
 Frequencies --    889.2600               902.3489               948.7740
 Red. masses --      1.6059                 2.9544                 2.2775
 Frc consts  --      0.7482                 1.4173                 1.2079
 IR Inten    --      1.4936                 1.8074                 7.5055

                     40                     41                     42
                      A                      A                      A
 Frequencies --    957.1913               962.4380               987.4107
 Red. masses --      2.1820                 1.8767                 1.9540
 Frc consts  --      1.1779                 1.0242                 1.1224
 IR Inten    --      1.9137                 3.0361                 8.5627

                     43                     44                     45
                      A                      A                      A
 Frequencies --    995.6807               996.1650              1030.3684
 Red. masses --      1.7566                 2.1651                 1.4340
 Frc consts  --      1.0260                 1.2659                 0.8970
 IR Inten    --      5.9356                18.2424                 1.6579

                     46                     47                     48
                      A                      A                      A
 Frequencies --   1047.8866              1081.3807              1095.6052
 Red. masses --      2.5511                 1.7679                 2.0457
 Frc consts  --      1.6504                 1.2180                 1.4468
 IR Inten    --     25.4296                15.9982                30.9573

                     49                     50                     51
                      A                      A                      A
 Frequencies --   1117.2525              1128.1142              1139.0119
 Red. masses --      1.6275                 2.0753                 2.1741
 Frc consts  --      1.1970                 1.5561                 1.6618
 IR Inten    --      5.5692                16.9847                72.2446

                     52                     53                     54
                      A                      A                      A
 Frequencies --   1194.4130              1204.1496              1225.3597
 Red. masses --      2.9491                 1.8282                 1.6885
 Frc consts  --      2.4788                 1.5618                 1.4937
 IR Inten    --     29.3355                88.1916                17.6302

                     55                     56                     57
                      A                      A                      A
 Frequencies --   1236.7290              1252.5896              1271.7991
 Red. masses --      1.9090                 2.6091                 1.4186
 Frc consts  --      1.7203                 2.4119                 1.3519
 IR Inten    --     23.4339                36.0054                15.2991

                     58                     59                     60
                      A                      A                      A
 Frequencies --   1291.9013              1301.2894              1314.5511
 Red. masses --      1.9906                 2.0821                 1.4760
 Frc consts  --      1.9575                 2.0773                 1.5027
 IR Inten    --    227.9186                15.0158                10.5616

                     61                     62                     63
                      A                      A                      A
 Frequencies --   1331.3396              1359.8456              1370.6010
 Red. masses --      1.1821                 3.7406                 1.4911
 Frc consts  --      1.2345                 4.0754                 1.6503
 IR Inten    --     18.9013               132.7451                11.1342

                     64                     65                     66
                      A                      A                      A
 Frequencies --   1398.4935              1410.0310              1418.5611
 Red. masses --      1.3419                 1.3854                 1.3687
 Frc consts  --      1.5463                 1.6228                 1.6228
 IR Inten    --      4.6719                 1.0102                 2.3053

                     67                     68                     69
                      A                      A                      A
 Frequencies --   1420.5573              1428.8134              1446.9875
 Red. masses --      1.3395                 1.7625                 1.3836
 Frc consts  --      1.5927                 2.1200                 1.7069
 IR Inten    --     12.6435                55.2677                 5.5654

                     70                     71                     72
                      A                      A                      A
 Frequencies --   1447.4503              1501.0031              1509.8594
 Red. masses --      1.2963                 1.0759                 1.0561
 Frc consts  --      1.6002                 1.4281                 1.4185
 IR Inten    --      2.9512                 3.2821                 1.5405

                     73                     74                     75
                      A                      A                      A
 Frequencies --   1511.6382              1518.1141              1524.8061
 Red. masses --      1.0514                 1.0784                 1.0855
 Frc consts  --      1.4155                 1.4644                 1.4869
 IR Inten    --     10.4087                 9.6182                13.0148

                     76                     77                     78
                      A                      A                      A
 Frequencies --   1525.9513              1529.9819              1536.0897
 Red. masses --      1.0544                 1.0704                 1.0637
 Frc consts  --      1.4466                 1.4763                 1.4788
 IR Inten    --      2.3518                 3.7522                 3.4243

                     79                     80                     81
                      A                      A                      A
 Frequencies --   1537.1023              1546.4899              1826.9712
 Red. masses --      1.0631                 1.0605                11.3484
 Frc consts  --      1.4798                 1.4944                22.3176
 IR Inten    --     13.1457                 3.3405               369.3487

                     82                     83                     84
                      A                      A                      A
 Frequencies --   1828.8437              1867.8827              3042.9299
 Red. masses --     11.2696                11.7929                 1.0625
 Frc consts  --     22.2082                24.2420                 5.7962
 IR Inten    --    341.2168                75.9171                13.6973

                     85                     86                     87
                      A                      A                      A
 Frequencies --   3045.4792              3047.7523              3050.4142
 Red. masses --      1.0408                 1.0658                 1.0813
 Frc consts  --      5.6877                 5.8330                 5.9283
 IR Inten    --     33.4142                23.8040                 1.0772

                     88                     89                     90
                      A                      A                      A
 Frequencies --   3056.3028              3062.1219              3066.5244
 Red. masses --      1.0351                 1.0374                 1.0688
 Frc consts  --      5.6967                 5.7312                 5.9216
 IR Inten    --     17.2024                19.8022                14.7358

                     91                     92                     93
                      A                      A                      A
 Frequencies --   3080.2006              3097.2509              3101.3516
 Red. masses --      1.0952                 1.0978                 1.0587
 Frc consts  --      6.1219                 6.2050                 5.9998
 IR Inten    --     20.2706                36.4114                13.1401

                     94                     95                     96
                      A                      A                      A
 Frequencies --   3112.0888              3125.6293              3126.5765
 Red. masses --      1.1002                 1.1024                 1.1027
 Frc consts  --      6.2780                 6.3453                 6.3511
 IR Inten    --     43.0101                33.7838                14.6787

                     97                     98                     99
                      A                      A                      A
 Frequencies --   3134.4762              3142.1169              3144.5622
 Red. masses --      1.0997                 1.0965                 1.1031
 Frc consts  --      6.3658                 6.3785                 6.4267
 IR Inten    --     17.0205                20.8490                12.7268

                    100                    101                    102
                      A                      A                      A
 Frequencies --   3157.4387              3160.6678              3612.1910
 Red. masses --      1.1032                 1.1086                 1.0775
 Frc consts  --      6.4797                 6.5251                 8.2835
 IR Inten    --     12.5030                 4.7913                23.5293

 - Thermochemistry -
 -------------------
 Temperature   298.150 Kelvin.  Pressure   1.00000 Atm.
 Atom     1 has atomic number  6 and mass  12.00000

 Molecular mass:   241.13141 amu.
 Principal axes and moments of inertia in atomic units:
                           1         2         3
     Eigenvalues --  2639.264675365.089026490.92701
           X            0.99998   0.00115   0.00625
           Y           -0.00133   0.99959   0.02865
           Z           -0.00622  -0.02866   0.99957
 This molecule is an asymmetric top.
 Rotational symmetry number  1.
 Warning -- assumption of classical behavior for rotation
           may cause significant error
 Rotational temperatures (Kelvin)      0.03282     0.01614     0.01334
 Rotational constants (GHZ):           0.68380     0.33639     0.27804
 Zero-point vibrational energy     803721.1 (Joules/Mol)
                                  192.09396 (Kcal/Mol)
 Warning -- explicit consideration of  29 degrees of freedom as
           vibrations may cause significant error
 Vibrational temperatures:     14.85    46.92    57.86    74.70   104.22
          (Kelvin)            113.12   131.43   181.07   239.23   269.85
                              296.77   318.44   327.16   347.12   358.45
                              400.39   424.29   464.58   482.37   559.33
                              569.62   622.96   646.56   709.12   783.05
                              793.76   843.08   872.39   888.82   974.34
                              996.18  1011.64  1110.77  1166.49  1194.69
                             1224.29  1279.45  1298.28  1365.07  1377.18
                             1384.73  1420.66  1432.56  1433.26  1482.47
                             1507.68  1555.87  1576.33  1607.48  1623.10
                             1638.78  1718.49  1732.50  1763.02  1779.38
                             1802.20  1829.84  1858.76  1872.27  1891.35
                             1915.50  1956.51  1971.99  2012.12  2028.72
                             2040.99  2043.87  2055.74  2081.89  2082.56
                             2159.61  2172.35  2174.91  2184.23  2193.86
                             2195.50  2201.30  2210.09  2211.55  2225.05
                             2628.60  2631.30  2687.47  4378.10  4381.77
                             4385.04  4388.87  4397.34  4405.71  4412.04
                             4431.72  4456.25  4462.15  4477.60  4497.08
                             4498.45  4509.81  4520.81  4524.32  4542.85
                             4547.50  5197.14

 Zero-point correction=                           0.306121 (Hartree/Particle)
 Thermal correction to Energy=                    0.324552
 Thermal correction to Enthalpy=                  0.325496
 Thermal correction to Gibbs Free Energy=         0.257260
 Sum of electronic and zero-point Energies=           -824.165964
 Sum of electronic and thermal Energies=              -824.147533
 Sum of electronic and thermal Enthalpies=            -824.146589
 Sum of electronic and thermal Free Energies=         -824.214826

                     E (Thermal)             CV                S
                      KCal/Mol        Cal/Mol-Kelvin    Cal/Mol-Kelvin
 Total                  203.659             67.303            143.616
 Electronic               0.000              0.000              0.000
 Translational            0.889              2.981             42.342
 Rotational               0.889              2.981             32.885
 Vibrational            201.882             61.342             68.389
 Vibration     1          0.593              1.987              7.949
 Vibration     2          0.594              1.983              5.664
 Vibration     3          0.594              1.981              5.248
 Vibration     4          0.596              1.977              4.743
 Vibration     5          0.599              1.967              4.086
 Vibration     6          0.600              1.964              3.925
 Vibration     7          0.602              1.955              3.631
 Vibration     8          0.611              1.927              3.009
 Vibration     9          0.624              1.884              2.477
 Vibration    10          0.632              1.857              2.252
 Vibration    11          0.641              1.831              2.076
 Vibration    12          0.648              1.809              1.948
 Vibration    13          0.651              1.799              1.899
 Vibration    14          0.658              1.777              1.794
 Vibration    15          0.662              1.764              1.737
 Vibration    16          0.679              1.714              1.544
 Vibration    17          0.689              1.683              1.446
 Vibration    18          0.708              1.630              1.295
 Vibration    19          0.716              1.605              1.235
 Vibration    20          0.757              1.494              1.005
 Vibration    21          0.763              1.479              0.978
 Vibration    22          0.794              1.398              0.849
 Vibration    23          0.808              1.362              0.798
 Vibration    24          0.849              1.266              0.676
 Vibration    25          0.899              1.152              0.556
 Vibration    26          0.907              1.136              0.541
 Vibration    27          0.943              1.062              0.474
 Vibration    28          0.965              1.018              0.439
 Vibration    29          0.978              0.994              0.420

 Optimization completed.
    -- Stationary point found.
 Normal termination of Gaussian 16 at Fri Dec 11 12:12:40 2020.

 ----------------------------------------------------------------------
 # B3LYP/6-311++G(d,p) empiricaldispersion=gd3bj scf=xqc pop=npa geom=c
 heck
 ----------------------------------------------------------------------

 ---------------------------------------
 CID_100940870_JID_7061_Energie_neutraal
 ---------------------------------------
 Structure from the checkpoint file:  "JID_7061.chk"
 Charge =  0 Multiplicity = 1

 SCF Done:  E(RB3LYP) =  -824.715096739     A.U. after   15 cycles
 Normal termination of Gaussian 16 at Fri Dec 11 12:18:25 2020.

 ----------------------------------------------------------------------
 # B3LYP/6-311++G(d,p) empiricaldispersion=gd3bj scf=xqc pop=npa geom=c
 heck
 ----------------------------------------------------------------------

 -------------------------------------
 CID_100940870_JID_7061_Energie_kation
 -------------------------------------
 Structure from the checkpoint file:  "JID_7061.chk"
 Charge =  1 Multiplicity = 2

 SCF Done:  E(UB3LYP) =  -824.381762349     A.U. after   29 cycles
 Normal termination of Gaussian 16 at Fri Dec 11 12:35:49 2020.
 Gaussian 16:  ES64L-G16RevA.03 25-Dec-2016

 ----------------------------------------------------------------------
 # B3LYP/6-311++G(d,p) empiricaldispersion=gd3bj scf=xqc pop=npa geom=c
 heck
 ----------------------------------------------------------------------

 ------------------------------------
 CID_100940870_JID_7061_Energie_anion
 ------------------------------------
 Structure from the checkpoint file:  "JID_7061.chk"
 Charge = -1 Multiplicity = 2

                         Standard orientation:
 ---------------------------------------------------------------------
 Center     Atomic      Atomic             Coordinates (Angstroms)
 Number     Number       Type             X           Y           Z
 ---------------------------------------------------------------------
      1          6           0       -3.920807   -1.579386    0.632490
      2          6           0       -2.550928   -1.667929   -0.047256
      3          6           0       -2.447261   -0.856134   -1.346423
      4          6           0       -2.787207    0.638914   -1.192942
      5          6           0       -2.063360    1.303975   -0.044774
      6          8           0       -2.589987    1.889024    0.875293
      7          8           0       -0.716976    1.156292   -0.154080
      8          6           0        0.057579    1.712897    0.925987
      9          6           0        1.424477    1.057932    0.869653
     10          6           0        1.372468   -0.463220    0.941282
     11          8           0        0.724458   -1.126594    1.717567
     12          6           0        2.273664   -1.057689   -0.160283
     13          7           0        2.690527    0.150779   -0.872050
     14          6           0        2.198402    1.344391   -0.420170
     15          8           0        2.358523    2.434783   -0.937076
     16          6           0        1.455041   -1.998879   -1.052442
     17          6           0        3.462851   -1.788013    0.482748
     18          1           0       -4.127048   -0.563385    0.985179
     19          1           0       -3.968238   -2.244511    1.501360
     20          1           0       -4.725381   -1.869339   -0.055217
     21          1           0       -1.772170   -1.338188    0.651947
     22          1           0       -2.321745   -2.716194   -0.279175
     23          1           0       -1.433995   -0.949077   -1.751287
     24          1           0       -3.125697   -1.276858   -2.100056
     25          1           0       -2.525484    1.168241   -2.117507
     26          1           0       -3.854290    0.788016   -1.015235
     27          1           0        0.146436    2.793656    0.787449
     28          1           0       -0.440624    1.504766    1.874178
     29          1           0        2.016865    1.431479    1.716931
     30          1           0        3.208174    0.119734   -1.741055
     31          1           0        2.089655   -2.435656   -1.831860
     32          1           0        1.032704   -2.807655   -0.449812
     33          1           0        0.637223   -1.454020   -1.530828
     34          1           0        4.046479   -1.108033    1.111269
     35          1           0        3.101859   -2.616207    1.099555
     36          1           0        4.123928   -2.191410   -0.292342
 ---------------------------------------------------------------------

 SCF Done:  E(UB3LYP) =  -824.714554628     A.U. after   33 cycles
 SCF Done:  E(UB3LYP) =  -824.714554628     a.u. after    1 cycles

 The electronic state is 2-A.
 Alpha  occ. eigenvalues --  -19.06267 -19.01386 -18.98154 -18.97127 -14.22707
 Alpha  occ. eigenvalues --  -10.20209 -10.16122 -10.11941 -10.11164 -10.10355
 Alpha  occ. eigenvalues --  -10.08747 -10.07637 -10.07175 -10.06585 -10.06451
 Alpha  occ. eigenvalues --  -10.06338 -10.05661  -1.00511  -0.93262  -0.92069
 Alpha  occ. eigenvalues --   -0.91047  -0.83076  -0.71710  -0.68651  -0.67412
 Alpha  occ. eigenvalues --   -0.64704  -0.59253  -0.58868  -0.56225  -0.51821
 Alpha  occ. eigenvalues --   -0.49743  -0.47620  -0.45363  -0.43002  -0.40033
 Alpha  occ. eigenvalues --   -0.39283  -0.38438  -0.38020  -0.36097  -0.35612
 Alpha  occ. eigenvalues --   -0.35459  -0.33899  -0.33112  -0.31609  -0.31096
 Alpha  occ. eigenvalues --   -0.31023  -0.30216  -0.30047  -0.29299  -0.28798
 Alpha  occ. eigenvalues --   -0.27836  -0.27510  -0.26870  -0.26099  -0.25873
 Alpha  occ. eigenvalues --   -0.25056  -0.23797  -0.23440  -0.23301  -0.22412
 Alpha  occ. eigenvalues --   -0.20514  -0.18030  -0.15632  -0.15306  -0.11827
 Alpha  occ. eigenvalues --    0.04383
 Alpha virt. eigenvalues --    0.06257   0.06881   0.08079   0.08342   0.09031
 Alpha virt. eigenvalues --    0.09708   0.09874   0.10101   0.10682   0.11317
 Alpha virt. eigenvalues --    0.11711   0.12003   0.12371   0.12561   0.13100

  Beta  occ. eigenvalues --  -19.06255 -19.01382 -18.98152 -18.96785 -14.22673
  Beta  occ. eigenvalues --  -10.20208 -10.16102 -10.11889 -10.11197 -10.09904
  Beta  occ. eigenvalues --  -10.08741 -10.07623 -10.07215 -10.06583 -10.06444
  Beta  occ. eigenvalues --  -10.06314 -10.05608  -1.00497  -0.93214  -0.92048
  Beta  occ. eigenvalues --   -0.90388  -0.82979  -0.71684  -0.68527  -0.67290
  Beta  occ. eigenvalues --   -0.64650  -0.59128  -0.58715  -0.56127  -0.51621
  Beta  occ. eigenvalues --   -0.49696  -0.47565  -0.45296  -0.42569  -0.39934
  Beta  occ. eigenvalues --   -0.39182  -0.38400  -0.37931  -0.35979  -0.35550
  Beta  occ. eigenvalues --   -0.35174  -0.33830  -0.32942  -0.31536  -0.31004
  Beta  occ. eigenvalues --   -0.30949  -0.30122  -0.29743  -0.29127  -0.28742
  Beta  occ. eigenvalues --   -0.27714  -0.27416  -0.26595  -0.25904  -0.25615
  Beta  occ. eigenvalues --   -0.24950  -0.23715  -0.23409  -0.23280  -0.21060
  Beta  occ. eigenvalues --   -0.20477  -0.18013  -0.15576  -0.15172  -0.11600
  Beta virt. eigenvalues --    0.06450   0.07181   0.08111   0.08502   0.09118
  Beta virt. eigenvalues --    0.09316   0.09935   0.10010   0.10665   0.11384
  Beta virt. eigenvalues --    0.11679   0.11762   0.11981   0.12348   0.12709

 Mulliken charges and spin densities:
               1          2
     1  C   -0.289688  -0.377586
     2  C   -0.256864   0.191945
     3  C    0.143268  -0.289454
     4  C   -0.331949  -0.157340
     5  C   -0.076528   0.000505
     6  O   -0.225696   0.004381
     7  O    0.088449   0.009945
     8  C   -0.089973  -0.433078
     9  C    0.285521   0.177922
    10  C    0.192965  -0.439963
    11  O   -0.323626   0.142247
    12  C   -0.204210   0.666961
    13  N   -0.148057   0.033565
    14  C    0.053975  -0.204989
    15  O   -0.360297   0.005841
    16  C    0.137179  -0.832490
    17  C   -0.262916  -0.205530
    18  H    0.127747   0.050300
    19  H    0.097219   0.032775
    20  H    0.048916   0.075241
    21  H    0.172015  -0.006222
    22  H   -0.009864   0.165501
    23  H    0.163387  -0.023055
    24  H   -0.225514   0.398914
    25  H    0.018687   0.171826
    26  H    0.186904  -0.015106
    27  H    0.157277   0.058577
    28  H    0.183363   0.026720
    29  H   -0.394349   0.685231
    30  H    0.168048   0.120632
    31  H   -0.450035   0.602844
    32  H    0.163641   0.012514
    33  H    0.023061   0.142309
    34  H    0.073892   0.073494
    35  H    0.091499   0.075603
    36  H    0.072551   0.059018
 Sum of Mulliken charges =  -1.00000   1.00000

 Dipole moment (field-independent basis, Debye):
    X=             -1.6391    Y=             -1.0148    Z=             -0.7339  Tot=              2.0628
 Quadrupole moment (field-independent basis, Debye-Ang):
   XX=           -147.8239   YY=           -146.1356   ZZ=           -136.5578
   XY=             -5.0784   XZ=              2.8042   YZ=             -3.8118

 Summary of Natural Population Analysis:

                                       Natural Population
                Natural  -----------------------------------------------
    Atom  No    Charge         Core      Valence    Rydberg      Total
 -----------------------------------------------------------------------
      C    1   -0.28892      0.99967     2.28519    0.00407     3.28892
      C    2   -0.20030      0.99964     2.19282    0.00785     3.20030
      C    3   -0.18630      0.99962     2.17797    0.00870     3.18630
      C    4   -0.23711      0.99958     2.22918    0.00835     3.23711
      C    5    0.41298      0.99969     1.56291    0.02442     2.58702
      O    6   -0.30794      0.99987     3.30289    0.00517     4.30794
      O    7   -0.28323      0.99986     3.27505    0.00832     4.28323
      C    8   -0.00769      0.99954     1.99462    0.01353     3.00769
      C    9   -0.20495      0.99950     2.19408    0.01137     3.20495
      C   10    0.36031      0.99960     1.61583    0.02426     2.63969
      O   11   -0.26670      0.99987     3.26003    0.00680     4.26670
      C   12    0.01725      0.99955     1.97003    0.01317     2.98275
      N   13   -0.31837      0.99965     2.80828    0.01045     3.81837
      C   14    0.35629      0.99966     1.62096    0.02310     2.64371
      O   15   -0.32739      0.99987     3.32121    0.00631     4.32739
      C   16   -0.28304      0.99962     2.27604    0.00738     3.28304
      C   17   -0.27909      0.99962     2.27410    0.00536     3.27909
      H   18    0.10106      0.00000     0.39800    0.00094     0.39894
      H   19    0.09828      0.00000     0.40103    0.00069     0.40172
      H   20    0.09096      0.00000     0.40808    0.00096     0.40904
      H   21    0.10994      0.00000     0.38820    0.00186     0.39006
      H   22    0.09613      0.00000     0.40289    0.00099     0.40387
      H   23    0.10411      0.00000     0.39442    0.00148     0.39589
      H   24    0.09425      0.00000     0.40466    0.00109     0.40575
      H   25    0.11268      0.00000     0.38638    0.00094     0.38732
      H   26    0.10576      0.00000     0.39329    0.00094     0.39424
      H   27    0.09643      0.00000     0.40247    0.00111     0.40357
      H   28    0.10273      0.00000     0.39611    0.00116     0.39727
      H   29    0.13138      0.00000     0.36441    0.00421     0.36862
      H   30    0.19158      0.00000     0.30601    0.00241     0.30842
      H   31    0.09632      0.00000     0.40196    0.00173     0.40368
      H   32    0.10763      0.00000     0.39135    0.00102     0.39237
      H   33    0.10322      0.00000     0.39517    0.00161     0.39678
      H   34    0.10075      0.00000     0.39824    0.00102     0.39925
      H   35    0.10638      0.00000     0.39276    0.00086     0.39362
      H   36    0.09464      0.00000     0.40437    0.00098     0.40536
 =======================================================================
   * Total *    0.00000     16.99440    47.79097    0.21464    65.00000

 Normal termination of Gaussian 16 at Fri Dec 11 12:59:11 2020.
