 Gaussian 16, Revision A.03,

 -----------------------------------------------------------
 # opt freq B3LYP/6-31G(d) empiricaldispersion=gd3bj scf=xqc
 -----------------------------------------------------------

 --------------------------------
 CID_142855280_JID_10591_neutraal
 --------------------------------
 Symbolic Z-matrix:
 Charge =  0 Multiplicity = 1

 SCF Done:  E(RB3LYP) =  -812.543315693     A.U. after   14 cycles
 SCF Done:  E(RB3LYP) =  -812.550607563     A.U. after   13 cycles
 SCF Done:  E(RB3LYP) =  -812.552119479     A.U. after   14 cycles
 SCF Done:  E(RB3LYP) =  -812.553518651     A.U. after   14 cycles
 SCF Done:  E(RB3LYP) =  -812.556098667     A.U. after   14 cycles
 SCF Done:  E(RB3LYP) =  -812.542406868     A.U. after   15 cycles
 SCF Done:  E(RB3LYP) =  -812.549049184     A.U. after   14 cycles
 SCF Done:  E(RB3LYP) =  -812.556693849     A.U. after   11 cycles
 SCF Done:  E(RB3LYP) =  -812.555777472     A.U. after   14 cycles
 SCF Done:  E(RB3LYP) =  -812.556904872     A.U. after   13 cycles
 SCF Done:  E(RB3LYP) =  -812.559591782     A.U. after    9 cycles
 SCF Done:  E(RB3LYP) =  -812.559601127     A.U. after    9 cycles
 SCF Done:  E(RB3LYP) =  -812.559603255     A.U. after    8 cycles
 SCF Done:  E(RB3LYP) =  -812.559603757     A.U. after    8 cycles
 SCF Done:  E(RB3LYP) =  -812.559603794     A.U. after    6 cycles
 Optimization completed.
    -- Stationary point found.
 Normal termination of Gaussian 16 at Sat Dec 12 16:18:20 2020.

 --------------------------------------------------------------------
 #N Geom=AllCheck Guess=TCheck SCRF=Check GenChk RB3LYP/6-31G(d) Freq
 --------------------------------------------------------------------

 Structure from the checkpoint file:  "JID_10591.chk"
 --------------------------------
 CID_142855280_JID_10591_neutraal
 --------------------------------
 Charge =  0 Multiplicity = 1

 SCF Done:  E(RB3LYP) =  -812.559603794     A.U. after    1 cycles

  Exact polarizability: 228.726 -24.518 214.511  34.745  21.024 150.515
 Approx polarizability: 336.791 -57.305 378.518  73.517  46.085 246.452

                      1                      2                      3
                      A                      A                      A
 Frequencies --     21.4204                33.3493                36.1389
 Red. masses --      3.9318                 4.1346                 3.8244
 Frc consts  --      0.0011                 0.0027                 0.0029
 IR Inten    --      0.1251                 0.0513                 0.0450

                      4                      5                      6
                      A                      A                      A
 Frequencies --     88.3247                95.6830               104.0432
 Red. masses --      2.8061                 2.9641                 3.2538
 Frc consts  --      0.0129                 0.0160                 0.0208
 IR Inten    --      0.7035                 0.1162                 0.3461

                      7                      8                      9
                      A                      A                      A
 Frequencies --    123.7737               154.9760               160.3055
 Red. masses --      3.4772                 3.0536                 2.6315
 Frc consts  --      0.0314                 0.0432                 0.0398
 IR Inten    --      0.1105                 0.6073                 0.1960

                     10                     11                     12
                      A                      A                      A
 Frequencies --    179.8950               189.3339               198.8141
 Red. masses --      2.1273                 1.3297                 1.6297
 Frc consts  --      0.0406                 0.0281                 0.0380
 IR Inten    --      0.5349                 0.2085                 0.1723

                     13                     14                     15
                      A                      A                      A
 Frequencies --    215.1722               228.3411               249.1878
 Red. masses --      1.1946                 2.8125                 2.7872
 Frc consts  --      0.0326                 0.0864                 0.1020
 IR Inten    --      0.1169                 0.7180                 2.4328

                     16                     17                     18
                      A                      A                      A
 Frequencies --    265.5238               282.5064               316.0129
 Red. masses --      2.1865                 2.6614                 3.4126
 Frc consts  --      0.0908                 0.1251                 0.2008
 IR Inten    --      1.9310                 0.5387                 0.5611

                     19                     20                     21
                      A                      A                      A
 Frequencies --    364.1557               400.4489               409.5724
 Red. masses --      3.6394                 2.9745                 3.0600
 Frc consts  --      0.2844                 0.2810                 0.3024
 IR Inten    --      3.9951                 1.0259                 1.0419

                     22                     23                     24
                      A                      A                      A
 Frequencies --    427.0519               440.9696               449.6136
 Red. masses --      3.1949                 4.6509                 3.2591
 Frc consts  --      0.3433                 0.5329                 0.3882
 IR Inten    --      2.1989                 3.8244                 2.0495

                     25                     26                     27
                      A                      A                      A
 Frequencies --    466.3888               487.0080               515.6665
 Red. masses --      2.9007                 5.2415                 3.5725
 Frc consts  --      0.3718                 0.7324                 0.5597
 IR Inten    --      0.0553                 1.8880                 1.8494

                     28                     29                     30
                      A                      A                      A
 Frequencies --    539.7374               572.3956               587.1221
 Red. masses --      3.2580                 3.6565                 5.5880
 Frc consts  --      0.5592                 0.7058                 1.1349
 IR Inten    --      2.2839                 1.0118                 1.3844

                     31                     32                     33
                      A                      A                      A
 Frequencies --    633.1936               652.6627               665.0837
 Red. masses --      2.1410                 3.0202                 2.6346
 Frc consts  --      0.5057                 0.7580                 0.6866
 IR Inten    --     14.6755                 6.1455                 7.5462

                     34                     35                     36
                      A                      A                      A
 Frequencies --    709.2787               736.1023               766.8949
 Red. masses --      4.8286                 5.6958                 1.9179
 Frc consts  --      1.4312                 1.8184                 0.6646
 IR Inten    --      7.4083                 1.3969                11.7167

                     37                     38                     39
                      A                      A                      A
 Frequencies --    768.5278               791.2758               816.1312
 Red. masses --      1.5608                 1.4977                 1.8340
 Frc consts  --      0.5432                 0.5525                 0.7197
 IR Inten    --      2.8281                11.7401                19.4487

                     40                     41                     42
                      A                      A                      A
 Frequencies --    838.5627               849.9924               852.8422
 Red. masses --      1.7611                 2.4726                 3.3880
 Frc consts  --      0.7296                 1.0525                 1.4519
 IR Inten    --     21.3351                 2.4716                 3.2879

                     43                     44                     45
                      A                      A                      A
 Frequencies --    860.2245               899.9650               903.8015
 Red. masses --      1.5445                 1.4103                 1.3896
 Frc consts  --      0.6734                 0.6730                 0.6688
 IR Inten    --     47.5360                 4.0607                15.7942

                     46                     47                     48
                      A                      A                      A
 Frequencies --    920.6507               949.8886               959.4166
 Red. masses --      2.0981                 2.0373                 1.2685
 Frc consts  --      1.0478                 1.0831                 0.6879
 IR Inten    --     11.6461                 3.7893                 0.2335

                     49                     50                     51
                      A                      A                      A
 Frequencies --    961.2088               968.3623               997.2528
 Red. masses --      3.0584                 1.2816                 1.1947
 Frc consts  --      1.6649                 0.7081                 0.7000
 IR Inten    --      4.5584                 1.3352                 0.5538

                     52                     53                     54
                      A                      A                      A
 Frequencies --   1005.6607              1022.1143              1045.3806
 Red. masses --      2.1253                 2.2325                 3.5232
 Frc consts  --      1.2664                 1.3741                 2.2685
 IR Inten    --      2.7618                 8.2260                93.5445

                     55                     56                     57
                      A                      A                      A
 Frequencies --   1068.0669              1077.6046              1080.5192
 Red. masses --      1.8834                 1.5215                 1.5207
 Frc consts  --      1.2659                 1.0410                 1.0460
 IR Inten    --      0.7241                 2.0630                 0.5304

                     58                     59                     60
                      A                      A                      A
 Frequencies --   1088.8916              1102.0409              1110.9645
 Red. masses --      2.6524                 1.6340                 1.9435
 Frc consts  --      1.8530                 1.1692                 1.4133
 IR Inten    --     13.3286                 3.4773                 2.7675

                     61                     62                     63
                      A                      A                      A
 Frequencies --   1120.8491              1132.3685              1175.9743
 Red. masses --      2.4180                 1.9730                 1.2869
 Frc consts  --      1.7898                 1.4906                 1.0485
 IR Inten    --     13.0578                 2.8235                19.7214

                     64                     65                     66
                      A                      A                      A
 Frequencies --   1197.7830              1213.3556              1223.6136
 Red. masses --      1.3488                 1.5945                 2.3517
 Frc consts  --      1.1401                 1.3831                 2.0745
 IR Inten    --     11.9945                75.7995                 4.8176

                     67                     68                     69
                      A                      A                      A
 Frequencies --   1264.2944              1281.4696              1285.4490
 Red. masses --      2.6764                 1.2541                 1.1853
 Frc consts  --      2.5206                 1.2134                 1.1540
 IR Inten    --     54.0045                 1.2987                 3.3536

                     70                     71                     72
                      A                      A                      A
 Frequencies --   1294.0424              1302.2972              1309.2177
 Red. masses --      1.7857                 1.2161                 1.7372
 Frc consts  --      1.7617                 1.2152                 1.7543
 IR Inten    --     64.2733                 1.0346                37.5465

                     73                     74                     75
                      A                      A                      A
 Frequencies --   1349.9070              1392.6647              1398.7025
 Red. masses --      1.3792                 1.5511                 2.3890
 Frc consts  --      1.4807                 1.7724                 2.7538
 IR Inten    --      6.5541                11.3157                 1.3530

                     76                     77                     78
                      A                      A                      A
 Frequencies --   1403.7582              1421.4693              1427.0149
 Red. masses --      1.4214                 6.0032                 2.1394
 Frc consts  --      1.6502                 7.1468                 2.5668
 IR Inten    --      5.9293                 0.3198                21.7243

                     79                     80                     81
                      A                      A                      A
 Frequencies --   1436.2917              1439.0019              1443.8634
 Red. masses --      1.2667                 1.2410                 1.2898
 Frc consts  --      1.5396                 1.5141                 1.5843
 IR Inten    --      2.5463                 0.7620                 2.0798

                     82                     83                     84
                      A                      A                      A
 Frequencies --   1466.0997              1486.7950              1508.6475
 Red. masses --      1.5513                 2.7808                 1.1111
 Frc consts  --      1.9646                 3.6218                 1.4900
 IR Inten    --      4.6471                45.1390                 3.1824

                     85                     86                     87
                      A                      A                      A
 Frequencies --   1513.5260              1514.3137              1515.0844
 Red. masses --      1.1639                 1.5683                 1.0447
 Frc consts  --      1.5710                 2.1190                 1.4130
 IR Inten    --     29.3928                14.1333                 8.5562

                     88                     89                     90
                      A                      A                      A
 Frequencies --   1520.0536              1528.5969              1530.0447
 Red. masses --      1.0816                 1.1204                 1.0416
 Frc consts  --      1.4724                 1.5425                 1.4366
 IR Inten    --      6.6846                 7.3722                 5.2918

                     91                     92                     93
                      A                      A                      A
 Frequencies --   1535.2584              1537.2749              1567.0542
 Red. masses --      1.2220                 1.0838                 3.9015
 Frc consts  --      1.6971                 1.5090                 5.6449
 IR Inten    --      1.0898                10.4140                30.1632

                     94                     95                     96
                      A                      A                      A
 Frequencies --   1640.5050              1664.0655              1683.6948
 Red. masses --      7.1109                 5.2041                 6.0822
 Frc consts  --     11.2754                 8.4905                10.1587
 IR Inten    --      6.3272                41.8357                73.6018

                     97                     98                     99
                      A                      A                      A
 Frequencies --   1731.1529              1738.3642              3016.5818
 Red. masses --      6.4646                 7.4992                 1.0717
 Frc consts  --     11.4147                13.3521                 5.7461
 IR Inten    --      2.3002                 3.9133                41.4982

                    100                    101                    102
                      A                      A                      A
 Frequencies --   3037.2486              3038.7556              3040.1090
 Red. masses --      1.0448                 1.0629                 1.0383
 Frc consts  --      5.6789                 5.7828                 5.6542
 IR Inten    --     22.3865                51.4630                28.8380

                    103                    104                    105
                      A                      A                      A
 Frequencies --   3049.0920              3085.3137              3089.5449
 Red. masses --      1.0366                 1.0969                 1.1005
 Frc consts  --      5.6782                 6.1520                 6.1892
 IR Inten    --     28.3941                20.5013                20.3605

                    106                    107                    108
                      A                      A                      A
 Frequencies --   3092.7166              3103.0103              3113.5031
 Red. masses --      1.1012                 1.0935                 1.0913
 Frc consts  --      6.2057                 6.2035                 6.2327
 IR Inten    --     25.8797                 8.7559                 2.8183

                    109                    110                    111
                      A                      A                      A
 Frequencies --   3123.9733              3125.4945              3128.9055
 Red. masses --      1.0837                 1.0938                 1.0998
 Frc consts  --      6.2314                 6.2954                 6.3439
 IR Inten    --     10.2686                52.1492                19.7480

                    112                    113                    114
                      A                      A                      A
 Frequencies --   3130.9250              3151.0071              3173.5540
 Red. masses --      1.1011                 1.0925                 1.0948
 Frc consts  --      6.3594                 6.3908                 6.4963
 IR Inten    --     43.3241                31.2376                19.0359

                    115                    116                    117
                      A                      A                      A
 Frequencies --   3176.1055              3184.1705              3202.6840
 Red. masses --      1.0855                 1.0904                 1.0964
 Frc consts  --      6.4517                 6.5138                 6.6260
 IR Inten    --      0.3993                26.2562                33.7177

                    118                    119                    120
                      A                      A                      A
 Frequencies --   3205.0006              3222.0090              3232.2628
 Red. masses --      1.0865                 1.0949                 1.0896
 Frc consts  --      6.5753                 6.6971                 6.7068
 IR Inten    --      5.3478                12.8220                12.0251

 - Thermochemistry -
 -------------------
 Temperature   298.150 Kelvin.  Pressure   1.00000 Atm.
 Atom     1 has atomic number  6 and mass  12.00000

 Molecular mass:   266.16707 amu.
 Principal axes and moments of inertia in atomic units:
                           1         2         3
     Eigenvalues --  3445.284817295.015108470.88796
           X            0.99976   0.02026   0.00888
           Y           -0.02045   0.99955   0.02174
           Z           -0.00843  -0.02192   0.99972
 This molecule is an asymmetric top.
 Rotational symmetry number  1.
 Warning -- assumption of classical behavior for rotation
           may cause significant error
 Rotational temperatures (Kelvin)      0.02514     0.01187     0.01022
 Rotational constants (GHZ):           0.52383     0.24739     0.21305
 Zero-point vibrational energy     948766.6 (Joules/Mol)
                                  226.76065 (Kcal/Mol)
 Warning -- explicit consideration of  30 degrees of freedom as
           vibrations may cause significant error
 Vibrational temperatures:     30.82    47.98    52.00   127.08   137.67
          (Kelvin)            149.69   178.08   222.98   230.64   258.83
                              272.41   286.05   309.58   328.53   358.53
                              382.03   406.46   454.67   523.94   576.16
                              589.28   614.43   634.46   646.89   671.03
                              700.70   741.93   776.56   823.55   844.74
                              911.02   939.04   956.91  1020.49  1059.09
                             1103.39  1105.74  1138.47  1174.23  1206.50
                             1222.95  1227.05  1237.67  1294.85  1300.37
                             1324.61  1366.68  1380.39  1382.97  1393.26
                             1434.82  1446.92  1470.59  1504.07  1536.71
                             1550.43  1554.63  1566.67  1585.59  1598.43
                             1612.65  1629.23  1691.96  1723.34  1745.75
                             1760.51  1819.04  1843.75  1849.47  1861.84
                             1873.72  1883.67  1942.22  2003.73  2012.42
                             2019.69  2045.18  2053.16  2066.50  2070.40
                             2077.40  2109.39  2139.17  2170.61  2177.63
                             2178.76  2179.87  2187.02  2199.31  2201.39
                             2208.89  2211.80  2254.64  2360.32  2394.22
                             2422.46  2490.74  2501.12  4340.19  4369.92
                             4372.09  4374.04  4386.96  4439.08  4445.17
                             4449.73  4464.54  4479.64  4494.70  4496.89
                             4501.80  4504.70  4533.60  4566.04  4569.71
                             4581.31  4607.95  4611.28  4635.75  4650.51

 Zero-point correction=                           0.361366 (Hartree/Particle)
 Thermal correction to Energy=                    0.380740
 Thermal correction to Enthalpy=                  0.381685
 Thermal correction to Gibbs Free Energy=         0.313162
 Sum of electronic and zero-point Energies=           -812.198238
 Sum of electronic and thermal Energies=              -812.178863
 Sum of electronic and thermal Enthalpies=            -812.177919
 Sum of electronic and thermal Free Energies=         -812.246442

                     E (Thermal)             CV                S
                      KCal/Mol        Cal/Mol-Kelvin    Cal/Mol-Kelvin
 Total                  238.918             75.150            144.218
 Electronic               0.000              0.000              0.000
 Translational            0.889              2.981             42.636
 Rotational               0.889              2.981             33.720
 Vibrational            237.141             69.189             67.861
 Vibration     1          0.593              1.985              6.498
 Vibration     2          0.594              1.983              5.620
 Vibration     3          0.594              1.982              5.460
 Vibration     4          0.601              1.957              3.697
 Vibration     5          0.603              1.952              3.540
 Vibration     6          0.605              1.946              3.377
 Vibration     7          0.610              1.929              3.041
 Vibration     8          0.620              1.897              2.610
 Vibration     9          0.622              1.891              2.546
 Vibration    10          0.629              1.867              2.330
 Vibration    11          0.633              1.855              2.234
 Vibration    12          0.637              1.842              2.144
 Vibration    13          0.645              1.818              1.999
 Vibration    14          0.651              1.798              1.892
 Vibration    15          0.662              1.764              1.736
 Vibration    16          0.671              1.736              1.625
 Vibration    17          0.682              1.706              1.518
 Vibration    18          0.703              1.643              1.331
 Vibration    19          0.738              1.546              1.104
 Vibration    20          0.766              1.469              0.961
 Vibration    21          0.774              1.449              0.928
 Vibration    22          0.789              1.411              0.868
 Vibration    23          0.801              1.381              0.824
 Vibration    24          0.809              1.362              0.797
 Vibration    25          0.824              1.325              0.748
 Vibration    26          0.843              1.279              0.691
 Vibration    27          0.871              1.215              0.620
 Vibration    28          0.895              1.162              0.566
 Vibration    29          0.929              1.091              0.500
 Vibration    30          0.944              1.059              0.472

 Optimization completed.
    -- Stationary point found.
 Normal termination of Gaussian 16 at Sat Dec 12 16:43:19 2020.

 ----------------------------------------------------------------------
 # B3LYP/6-311++G(d,p) empiricaldispersion=gd3bj scf=xqc pop=npa geom=c
 heck
 ----------------------------------------------------------------------

 ----------------------------------------
 CID_142855280_JID_10591_Energie_neutraal
 ----------------------------------------
 Structure from the checkpoint file:  "JID_10591.chk"
 Charge =  0 Multiplicity = 1

 SCF Done:  E(RB3LYP) =  -812.770781285     A.U. after   15 cycles
 Normal termination of Gaussian 16 at Sat Dec 12 16:55:02 2020.

 ----------------------------------------------------------------------
 # B3LYP/6-311++G(d,p) empiricaldispersion=gd3bj scf=xqc pop=npa geom=c
 heck
 ----------------------------------------------------------------------

 --------------------------------------
 CID_142855280_JID_10591_Energie_kation
 --------------------------------------
 Structure from the checkpoint file:  "JID_10591.chk"
 Charge =  1 Multiplicity = 2

 SCF Done:  E(UB3LYP) =  -812.501952319     A.U. after   23 cycles
 Normal termination of Gaussian 16 at Sat Dec 12 17:20:19 2020.
 Gaussian 16:  ES64L-G16RevA.03 25-Dec-2016

 ----------------------------------------------------------------------
 # B3LYP/6-311++G(d,p) empiricaldispersion=gd3bj scf=xqc pop=npa geom=c
 heck
 ----------------------------------------------------------------------

 -------------------------------------
 CID_142855280_JID_10591_Energie_anion
 -------------------------------------
 Structure from the checkpoint file:  "JID_10591.chk"
 Charge = -1 Multiplicity = 2

                         Standard orientation:
 ---------------------------------------------------------------------
 Center     Atomic      Atomic             Coordinates (Angstroms)
 Number     Number       Type             X           Y           Z
 ---------------------------------------------------------------------
      1          6           0        2.460900    3.119976   -0.350647
      2          6           0        3.425879    1.923898   -0.401012
      3          6           0        3.042313    0.850213    0.574489
      4          6           0        2.804121   -0.445353    0.318569
      5          6           0        2.488804   -1.395649    1.453708
      6          8           0        1.335842   -2.203922    1.181262
      7          6           0        0.168201   -1.561940    0.875837
      8          6           0       -0.159273   -0.285375    1.281637
      9          6           0       -1.382887    0.308433    0.878076
     10          6           0       -1.710462    1.637509    1.255829
     11          6           0       -2.892233    2.205922    0.844750
     12          6           0       -3.796260    1.473054    0.041756
     13          6           0       -3.524170    0.178154   -0.352765
     14          6           0       -2.299008   -0.430754    0.062369
     15          6           0       -1.935581   -1.754903   -0.308702
     16          6           0       -0.738612   -2.304759    0.079485
     17          6           0       -4.504351   -0.579986   -1.212751
     18          6           0        2.848452   -1.085726   -1.013962
     19          6           0        2.068363   -0.806588   -2.067244
     20          6           0        0.976322    0.217822   -2.136781
     21          1           0        1.440419    2.816545   -0.605030
     22          1           0        2.769613    3.902338   -1.052560
     23          1           0        2.435688    3.561843    0.652806
     24          1           0        3.473450    1.512676   -1.413141
     25          1           0        4.437371    2.281876   -0.155747
     26          1           0        2.958282    1.181335    1.612395
     27          1           0        3.288302   -2.133087    1.583685
     28          1           0        2.373098   -0.853908    2.401751
     29          1           0        0.519563    0.299845    1.888993
     30          1           0       -1.009169    2.195074    1.871561
     31          1           0       -3.139007    3.223761    1.134017
     32          1           0       -4.725862    1.940174   -0.273237
     33          1           0       -2.611132   -2.340703   -0.922994
     34          1           0       -0.448982   -3.305776   -0.222752
     35          1           0       -4.057116   -0.880523   -2.168625
     36          1           0       -4.852331   -1.496347   -0.719845
     37          1           0       -5.382128    0.033906   -1.433752
     38          1           0        3.538829   -1.926803   -1.099704
     39          1           0        2.213974   -1.404077   -2.967570
     40          1           0        1.213138    1.005304   -2.865296
     41          1           0        0.038932   -0.249609   -2.463148
     42          1           0        0.795233    0.683849   -1.167745
 ---------------------------------------------------------------------

 SCF Done:  E(UB3LYP) =  -812.764133744     A.U. after   33 cycles
 SCF Done:  E(UB3LYP) =  -812.764133744     a.u. after    1 cycles

 The electronic state is 2-A.
 Alpha  occ. eigenvalues --  -19.03032 -10.12159 -10.09980 -10.06958 -10.06858
 Alpha  occ. eigenvalues --  -10.06539 -10.06446 -10.06194 -10.05620 -10.05419
 Alpha  occ. eigenvalues --  -10.05255 -10.05172 -10.04721 -10.04480 -10.03981
 Alpha  occ. eigenvalues --  -10.03829 -10.03590 -10.03424 -10.03248 -10.03227
 Alpha  occ. eigenvalues --   -0.94626  -0.74345  -0.72328  -0.69302  -0.67498
 Alpha  occ. eigenvalues --   -0.65861  -0.65206  -0.61354  -0.60897  -0.57997
 Alpha  occ. eigenvalues --   -0.57061  -0.56102  -0.51683  -0.49300  -0.47646
 Alpha  occ. eigenvalues --   -0.47280  -0.45286  -0.41158  -0.39644  -0.38647
 Alpha  occ. eigenvalues --   -0.38321  -0.37675  -0.36107  -0.34967  -0.33722
 Alpha  occ. eigenvalues --   -0.32875  -0.32491  -0.31243  -0.31015  -0.30371
 Alpha  occ. eigenvalues --   -0.30250  -0.29021  -0.28437  -0.28169  -0.27736
 Alpha  occ. eigenvalues --   -0.27123  -0.26565  -0.26156  -0.25163  -0.24814
 Alpha  occ. eigenvalues --   -0.24635  -0.23272  -0.22308  -0.21877  -0.21162
 Alpha  occ. eigenvalues --   -0.19733  -0.17861  -0.16851  -0.15091  -0.13066
 Alpha  occ. eigenvalues --   -0.10716  -0.08687   0.04841
 Alpha virt. eigenvalues --    0.06627   0.07405   0.07839   0.08391   0.08840
 Alpha virt. eigenvalues --    0.09188   0.09416   0.09860   0.10248   0.10743
 Alpha virt. eigenvalues --    0.11131   0.11426   0.11457   0.12350   0.12498

  Beta  occ. eigenvalues --  -19.03023 -10.12152 -10.09984 -10.06945 -10.06834
  Beta  occ. eigenvalues --  -10.06541 -10.06429 -10.06087 -10.05635 -10.05378
  Beta  occ. eigenvalues --  -10.05290 -10.05174 -10.04766 -10.04248 -10.03996
  Beta  occ. eigenvalues --  -10.03727 -10.03417 -10.03279 -10.03097 -10.03068
  Beta  occ. eigenvalues --   -0.94600  -0.74142  -0.72222  -0.69039  -0.67419
  Beta  occ. eigenvalues --   -0.65570  -0.65127  -0.61210  -0.60629  -0.57954
  Beta  occ. eigenvalues --   -0.56939  -0.55942  -0.51591  -0.48979  -0.47555
  Beta  occ. eigenvalues --   -0.47184  -0.45066  -0.41033  -0.39581  -0.38499
  Beta  occ. eigenvalues --   -0.38193  -0.37635  -0.36053  -0.34877  -0.33640
  Beta  occ. eigenvalues --   -0.32793  -0.32407  -0.31124  -0.30765  -0.30307
  Beta  occ. eigenvalues --   -0.30196  -0.28952  -0.28318  -0.28049  -0.27638
  Beta  occ. eigenvalues --   -0.27060  -0.26533  -0.25982  -0.25068  -0.24703
  Beta  occ. eigenvalues --   -0.24457  -0.23193  -0.22224  -0.21644  -0.21089
  Beta  occ. eigenvalues --   -0.19566  -0.17242  -0.16641  -0.14346  -0.12726
  Beta  occ. eigenvalues --   -0.10055  -0.07694
  Beta virt. eigenvalues --    0.07137   0.07508   0.07766   0.08367   0.08865
  Beta virt. eigenvalues --    0.08980   0.09428   0.09649   0.10030   0.10261
  Beta virt. eigenvalues --    0.10798   0.11238   0.11374   0.11485   0.12397

 Mulliken charges and spin densities:
               1          2
     1  C    0.410221  -0.959443
     2  C   -0.951816   0.629135
     3  C   -0.401424  -0.224250
     4  C    1.521712  -0.205237
     5  C   -0.507926  -0.001519
     6  O   -0.041782  -0.002576
     7  C   -0.597689   0.009514
     8  C    0.262773   0.028773
     9  C    0.507589   0.015750
    10  C   -0.288571   0.045627
    11  C   -0.482187   0.026153
    12  C   -0.565886   0.059331
    13  C    0.475587   0.119348
    14  C    0.526986  -0.000176
    15  C   -0.398288   0.114926
    16  C   -0.301385   0.088650
    17  C   -0.600279  -0.051103
    18  C   -0.653926  -0.051284
    19  C   -0.016106   0.064695
    20  C   -0.517519  -0.117524
    21  H    0.124136   0.008423
    22  H   -0.413866   0.553014
    23  H   -0.071429   0.196944
    24  H    0.120898   0.042389
    25  H   -0.206759   0.367189
    26  H    0.088366   0.038542
    27  H    0.143597   0.006327
    28  H    0.142084   0.005418
    29  H    0.093683   0.028935
    30  H    0.024447   0.055012
    31  H    0.083983   0.041192
    32  H    0.078115   0.005246
    33  H    0.119569  -0.009281
    34  H    0.146640  -0.008890
    35  H    0.125118   0.015639
    36  H    0.104494   0.039590
    37  H    0.125448   0.005084
    38  H    0.155837  -0.000017
    39  H    0.159973  -0.001659
    40  H    0.119976   0.026686
    41  H    0.131343  -0.004932
    42  H    0.224262   0.000359
 Sum of Mulliken charges =  -1.00000   1.00000

 Dipole moment (field-independent basis, Debye):
    X=              0.3665    Y=             -3.4924    Z=             -0.8606  Tot=              3.6155
 Quadrupole moment (field-independent basis, Debye-Ang):
   XX=           -174.8264   YY=           -165.2881   ZZ=           -138.2320
   XY=            -14.1102   XZ=              8.0045   YZ=              5.2482

 Summary of Natural Population Analysis:

                                       Natural Population
                Natural  -----------------------------------------------
    Atom  No    Charge         Core      Valence    Rydberg      Total
 -----------------------------------------------------------------------
      C    1   -0.28114      0.99966     2.27608    0.00541     3.28114
      C    2   -0.21242      0.99963     2.20316    0.00963     3.21242
      C    3   -0.05150      0.99946     2.04256    0.00948     3.05150
      C    4   -0.05034      0.99945     2.03880    0.01209     3.05034
      C    5   -0.01373      0.99953     2.00187    0.01234     3.01373
      O    6   -0.28273      0.99986     3.27347    0.00940     4.28273
      C    7    0.15567      0.99934     1.82979    0.01521     2.84433
      C    8   -0.11101      0.99946     2.10322    0.00833     3.11101
      C    9   -0.02674      0.99950     2.01760    0.00964     3.02674
      C   10   -0.07814      0.99953     2.06812    0.01048     3.07814
      C   11   -0.08678      0.99956     2.07725    0.00996     3.08678
      C   12   -0.11830      0.99952     2.11055    0.00823     3.11830
      C   13    0.02772      0.99949     1.96345    0.00934     2.97228
      C   14   -0.04460      0.99946     2.03587    0.00926     3.04460
      C   15   -0.06668      0.99955     2.05958    0.00754     3.06668
      C   16   -0.08630      0.99946     2.07839    0.00845     3.08630
      C   17   -0.29359      0.99965     2.28950    0.00444     3.29359
      C   18   -0.10932      0.99949     2.09994    0.00989     3.10932
      C   19   -0.06970      0.99954     2.06262    0.00753     3.06970
      C   20   -0.31279      0.99964     2.30587    0.00728     3.31279
      H   21    0.10183      0.00000     0.39703    0.00115     0.39817
      H   22    0.09775      0.00000     0.40074    0.00151     0.40225
      H   23    0.09436      0.00000     0.40460    0.00104     0.40564
      H   24    0.10273      0.00000     0.39599    0.00129     0.39727
      H   25    0.09889      0.00000     0.39977    0.00134     0.40111
      H   26    0.08707      0.00000     0.41177    0.00115     0.41293
      H   27    0.09017      0.00000     0.40881    0.00102     0.40983
      H   28    0.08414      0.00000     0.41476    0.00109     0.41586
      H   29    0.09702      0.00000     0.40114    0.00184     0.40298
      H   30    0.09173      0.00000     0.40674    0.00152     0.40827
      H   31    0.09148      0.00000     0.40750    0.00102     0.40852
      H   32    0.08914      0.00000     0.40965    0.00122     0.41086
      H   33    0.09257      0.00000     0.40617    0.00126     0.40743
      H   34    0.09575      0.00000     0.40263    0.00161     0.40425
      H   35    0.10007      0.00000     0.39863    0.00131     0.39993
      H   36    0.10044      0.00000     0.39827    0.00129     0.39956
      H   37    0.09588      0.00000     0.40334    0.00078     0.40412
      H   38    0.09486      0.00000     0.40410    0.00104     0.40514
      H   39    0.08686      0.00000     0.41212    0.00102     0.41314
      H   40    0.09828      0.00000     0.40085    0.00088     0.40172
      H   41    0.10880      0.00000     0.39033    0.00087     0.39120
      H   42    0.11262      0.00000     0.38535    0.00203     0.38738
 =======================================================================
   * Total *    0.00002     19.99080    51.79798    0.21120    71.99998

 Normal termination of Gaussian 16 at Sat Dec 12 17:56:35 2020.
