 Gaussian 16, Revision A.03,

 -----------------------------------------------------------
 # opt freq B3LYP/6-31G(d) empiricaldispersion=gd3bj scf=xqc
 -----------------------------------------------------------

 ------------------------------
 CID_14799132_JID_1193_neutraal
 ------------------------------
 Symbolic Z-matrix:
 Charge =  0 Multiplicity = 1

 SCF Done:  E(RB3LYP) =  -535.159342255     A.U. after   14 cycles
 SCF Done:  E(RB3LYP) =  -535.161557772     A.U. after   12 cycles
 SCF Done:  E(RB3LYP) =  -535.161737823     A.U. after   12 cycles
 SCF Done:  E(RB3LYP) =  -535.161856081     A.U. after   11 cycles
 SCF Done:  E(RB3LYP) =  -535.161968679     A.U. after   11 cycles
 SCF Done:  E(RB3LYP) =  -535.162060264     A.U. after   12 cycles
 SCF Done:  E(RB3LYP) =  -535.162057578     A.U. after   14 cycles
 SCF Done:  E(RB3LYP) =  -535.162263056     A.U. after   13 cycles
 SCF Done:  E(RB3LYP) =  -535.158264735     A.U. after   13 cycles
 SCF Done:  E(RB3LYP) =  -535.162803676     A.U. after   13 cycles
 SCF Done:  E(RB3LYP) =  -535.163603211     A.U. after   10 cycles
 SCF Done:  E(RB3LYP) =  -535.163607153     A.U. after   10 cycles
 SCF Done:  E(RB3LYP) =  -535.163607953     A.U. after   10 cycles
 SCF Done:  E(RB3LYP) =  -535.163609303     A.U. after    9 cycles
 SCF Done:  E(RB3LYP) =  -535.163609479     A.U. after    8 cycles
 SCF Done:  E(RB3LYP) =  -535.163609575     A.U. after    8 cycles
 Optimization completed.
    -- Stationary point found.
 Normal termination of Gaussian 16 at Mon Dec 14 13:10:17 2020.

 --------------------------------------------------------------------
 #N Geom=AllCheck Guess=TCheck SCRF=Check GenChk RB3LYP/6-31G(d) Freq
 --------------------------------------------------------------------

 Structure from the checkpoint file:  "JID_1193.chk"
 ------------------------------
 CID_14799132_JID_1193_neutraal
 ------------------------------
 Charge =  0 Multiplicity = 1

 SCF Done:  E(RB3LYP) =  -535.163609575     A.U. after    1 cycles

  Exact polarizability: 109.902   2.535  81.084  -0.009  -0.000  77.758
 Approx polarizability: 138.044   9.377 131.329   0.015   0.015 109.123

 ******    1 imaginary frequencies (negative Signs) ******

                      1                      2                      3
                      A                      A                      A
 Frequencies --    -33.7417                20.7874                35.6053
 Red. masses --      1.4269                 5.1844                 2.9677
 Frc consts  --      0.0010                 0.0013                 0.0022
 IR Inten    --    201.7634                 0.2337                18.8851

                      4                      5                      6
                      A                      A                      A
 Frequencies --    127.6950               192.0471               232.0384
 Red. masses --      4.0294                 4.9850                 2.2835
 Frc consts  --      0.0387                 0.1083                 0.0724
 IR Inten    --      0.0106                15.9974                 9.5856

                      7                      8                      9
                      A                      A                      A
 Frequencies --    258.8451               314.1650               357.1243
 Red. masses --      4.2283                 3.8535                 2.0747
 Frc consts  --      0.1669                 0.2241                 0.1559
 IR Inten    --      3.0594                 0.1846                 5.1335

                     10                     11                     12
                      A                      A                      A
 Frequencies --    380.1893               386.8288               409.1377
 Red. masses --      1.0687                 2.4267                 2.4568
 Frc consts  --      0.0910                 0.2139                 0.2423
 IR Inten    --     81.3588                 2.8363                13.2783

                     13                     14                     15
                      A                      A                      A
 Frequencies --    409.9930               485.2731               520.2704
 Red. masses --      2.0349                 1.4504                 3.5751
 Frc consts  --      0.2015                 0.2012                 0.5702
 IR Inten    --      1.5071                 4.3334                10.6645

                     16                     17                     18
                      A                      A                      A
 Frequencies --    531.6745               647.3221               660.6423
 Red. masses --      3.1182                 1.5271                 3.7946
 Frc consts  --      0.5193                 0.3770                 0.9758
 IR Inten    --      7.0503                 8.7499                17.6867

                     19                     20                     21
                      A                      A                      A
 Frequencies --    729.9049               776.0872               814.4066
 Red. masses --      2.3695                 3.6479                 3.0147
 Frc consts  --      0.7438                 1.2945                 1.1781
 IR Inten    --      7.3090                 0.1266                 6.3653

                     22                     23                     24
                      A                      A                      A
 Frequencies --    817.4190               839.6350               906.6313
 Red. masses --      1.5265                 2.8745                 2.3624
 Frc consts  --      0.6010                 1.1940                 1.1441
 IR Inten    --      0.6435                 9.6844                 0.0078

                     25                     26                     27
                      A                      A                      A
 Frequencies --    992.6804              1004.2482              1023.7756
 Red. masses --      2.6338                 1.9820                 2.2821
 Frc consts  --      1.5292                 1.1777                 1.4093
 IR Inten    --     23.4701                12.3186                 9.6312

                     28                     29                     30
                      A                      A                      A
 Frequencies --   1032.0604              1064.2890              1092.4748
 Red. masses --      1.5741                 2.1200                 1.9713
 Frc consts  --      0.9878                 1.4149                 1.3862
 IR Inten    --      6.2075                 6.7529                 1.1479

                     31                     32                     33
                      A                      A                      A
 Frequencies --   1117.6087              1137.3781              1146.3364
 Red. masses --      1.4752                 2.0015                 2.8810
 Frc consts  --      1.0856                 1.5255                 2.2306
 IR Inten    --     12.6901                75.6801                 8.4442

                     34                     35                     36
                      A                      A                      A
 Frequencies --   1190.2148              1224.9304              1231.4223
 Red. masses --      2.1029                 1.1706                 1.2324
 Frc consts  --      1.7552                 1.0348                 1.1010
 IR Inten    --     43.0756                 0.4737                13.2565

                     37                     38                     39
                      A                      A                      A
 Frequencies --   1262.2429              1305.2440              1325.3413
 Red. masses --      1.3607                 1.9899                 1.4891
 Frc consts  --      1.2773                 1.9974                 1.5411
 IR Inten    --     14.4862               177.5780                13.8366

                     40                     41                     42
                      A                      A                      A
 Frequencies --   1342.2873              1357.8208              1365.3763
 Red. masses --      1.3819                 1.5057                 1.5870
 Frc consts  --      1.4669                 1.6356                 1.7432
 IR Inten    --     23.6818                20.3552                 4.5103

                     43                     44                     45
                      A                      A                      A
 Frequencies --   1382.8568              1406.8622              1411.6187
 Red. masses --      1.3571                 1.5029                 1.8981
 Frc consts  --      1.5290                 1.7526                 2.2284
 IR Inten    --      0.9996                 0.8565                19.0501

                     46                     47                     48
                      A                      A                      A
 Frequencies --   1418.7087              1437.9255              1454.0732
 Red. masses --      1.4099                 1.3579                 1.2958
 Frc consts  --      1.6720                 1.6542                 1.6142
 IR Inten    --      0.4844                28.2322                33.3003

                     49                     50                     51
                      A                      A                      A
 Frequencies --   1486.5944              1496.2163              1510.5898
 Red. masses --      1.1181                 1.1072                 1.0996
 Frc consts  --      1.4559                 1.4604                 1.4783
 IR Inten    --      7.2610                 2.6992                 9.4880

                     52                     53                     54
                      A                      A                      A
 Frequencies --   1551.4473              1560.0135              1642.0269
 Red. masses --      1.0802                 1.0886                 1.2547
 Frc consts  --      1.5319                 1.5609                 1.9933
 IR Inten    --      0.0032                 6.6067                97.8728

                     55                     56                     57
                      A                      A                      A
 Frequencies --   1790.9739              3009.3178              3010.7826
 Red. masses --      8.6736                 1.0654                 1.0635
 Frc consts  --     16.3919                 5.6844                 5.6802
 IR Inten    --    279.7895                39.1212                41.4039

                     58                     59                     60
                      A                      A                      A
 Frequencies --   3021.1026              3046.5917              3049.8466
 Red. masses --      1.0617                 1.0709                 1.0733
 Frc consts  --      5.7094                 5.8564                 5.8821
 IR Inten    --     27.2840                 0.1564                18.7395

                     61                     62                     63
                      A                      A                      A
 Frequencies --   3058.9878              3061.3997              3063.5727
 Red. masses --      1.1006                 1.0891                 1.0850
 Frc consts  --      6.0676                 6.0137                 6.0000
 IR Inten    --      1.8638                78.7389                45.1444

                     64                     65                     66
                      A                      A                      A
 Frequencies --   3084.1374              3102.3064              3105.4018
 Red. masses --      1.0855                 1.1026                 1.1040
 Frc consts  --      6.0836                 6.2524                 6.2727
 IR Inten    --     72.4962                29.9187                42.3945

                     67                     68                     69
                      A                      A                      A
 Frequencies --   3589.9961              3716.9185              3727.8959
 Red. masses --      1.0448                 1.1053                 1.0658
 Frc consts  --      7.9334                 8.9966                 8.7267
 IR Inten    --     35.8899                32.0202                21.9387

 - Thermochemistry -
 -------------------
 Temperature   298.150 Kelvin.  Pressure   1.00000 Atm.
 Atom     1 has atomic number  6 and mass  12.00000

 Molecular mass:   158.10553 amu.
 Principal axes and moments of inertia in atomic units:
                           1         2         3
     Eigenvalues --   822.166182715.632772816.62908
           X            1.00000   0.00018  -0.00007
           Y           -0.00018   1.00000  -0.00011
           Z            0.00007   0.00011   1.00000
 This molecule is an asymmetric top.
 Rotational symmetry number  1.
 Warning -- assumption of classical behavior for rotation
           may cause significant error
 Rotational temperatures (Kelvin)      0.10535     0.03189     0.03075
 Rotational constants (GHZ):           2.19511     0.66457     0.64075
    1 imaginary frequencies ignored.
 Zero-point vibrational energy     575808.2 (Joules/Mol)
                                  137.62147 (Kcal/Mol)
 Warning -- explicit consideration of  15 degrees of freedom as
           vibrations may cause significant error
 Vibrational temperatures:     29.91    51.23   183.72   276.31   333.85
          (Kelvin)            372.42   452.01   513.82   547.01   556.56
                              588.66   589.89   698.20   748.55   764.96
                              931.35   950.52  1050.17  1116.62  1171.75
                             1176.08  1208.05  1304.44  1428.25  1444.89
                             1472.98  1484.90  1531.27  1571.83  1607.99
                             1636.43  1649.32  1712.45  1762.40  1771.74
                             1816.09  1877.96  1906.87  1931.25  1953.60
                             1964.47  1989.62  2024.16  2031.00  2041.21
                             2068.85  2092.09  2138.88  2152.72  2173.40
                             2232.19  2244.51  2362.51  2576.81  4329.74
                             4331.84  4346.69  4383.37  4388.05  4401.20
                             4404.67  4407.80  4437.39  4463.53  4467.98
                             5165.20  5347.82  5363.61

 Zero-point correction=                           0.219314 (Hartree/Particle)
 Thermal correction to Energy=                    0.229964
 Thermal correction to Enthalpy=                  0.230908
 Thermal correction to Gibbs Free Energy=         0.181797
 Sum of electronic and zero-point Energies=           -534.944296
 Sum of electronic and thermal Energies=              -534.933646
 Sum of electronic and thermal Enthalpies=            -534.932702
 Sum of electronic and thermal Free Energies=         -534.981812

                     E (Thermal)             CV                S
                      KCal/Mol        Cal/Mol-Kelvin    Cal/Mol-Kelvin
 Total                  144.304             40.896            103.362
 Electronic               0.000              0.000              0.000
 Translational            0.889              2.981             41.083
 Rotational               0.889              2.981             30.221
 Vibrational            142.527             34.935             32.058
 Vibration     1          0.593              1.986              6.558
 Vibration     2          0.594              1.982              5.490
 Vibration     3          0.611              1.925              2.980
 Vibration     4          0.634              1.851              2.208
 Vibration     5          0.653              1.792              1.863
 Vibration     6          0.668              1.748              1.670
 Vibration     7          0.702              1.647              1.340
 Vibration     8          0.732              1.561              1.135
 Vibration     9          0.750              1.512              1.038
 Vibration    10          0.755              1.498              1.012
 Vibration    11          0.774              1.450              0.930
 Vibration    12          0.774              1.449              0.927
 Vibration    13          0.841              1.283              0.696
 Vibration    14          0.875              1.205              0.609
 Vibration    15          0.887              1.180              0.583

                           ! Non-Optimized Parameters !
 Normal termination of Gaussian 16 at Mon Dec 14 13:15:20 2020.

 ----------------------------------------------------------------------
 # B3LYP/6-311++G(d,p) empiricaldispersion=gd3bj scf=xqc pop=npa geom=c
 heck
 ----------------------------------------------------------------------

 --------------------------------------
 CID_14799132_JID_1193_Energie_neutraal
 --------------------------------------
 Structure from the checkpoint file:  "JID_1193.chk"
 Charge =  0 Multiplicity = 1

 SCF Done:  E(RB3LYP) =  -535.335768769     A.U. after   14 cycles
 Normal termination of Gaussian 16 at Mon Dec 14 13:17:03 2020.

 ----------------------------------------------------------------------
 # B3LYP/6-311++G(d,p) empiricaldispersion=gd3bj scf=xqc pop=npa geom=c
 heck
 ----------------------------------------------------------------------

 ------------------------------------
 CID_14799132_JID_1193_Energie_kation
 ------------------------------------
 Structure from the checkpoint file:  "JID_1193.chk"
 Charge =  1 Multiplicity = 2

 SCF Done:  E(UB3LYP) =  -535.044610454     A.U. after   18 cycles
 Normal termination of Gaussian 16 at Mon Dec 14 13:20:00 2020.
 Gaussian 16:  ES64L-G16RevA.03 25-Dec-2016

 ----------------------------------------------------------------------
 # B3LYP/6-311++G(d,p) empiricaldispersion=gd3bj scf=xqc pop=npa geom=c
 heck
 ----------------------------------------------------------------------

 -----------------------------------
 CID_14799132_JID_1193_Energie_anion
 -----------------------------------
 Structure from the checkpoint file:  "JID_1193.chk"
 Charge = -1 Multiplicity = 2

                         Standard orientation:
 ---------------------------------------------------------------------
 Center     Atomic      Atomic             Coordinates (Angstroms)
 Number     Number       Type             X           Y           Z
 ---------------------------------------------------------------------
      1          6           0       -1.942636    0.482655   -1.246969
      2          6           0       -0.415113    0.426195   -1.239973
      3          7           0        0.133073    0.991567    0.000374
      4          6           0       -0.415152    0.425009    1.240189
      5          6           0       -1.942656    0.481753    1.247307
      6          6           0       -2.515024   -0.202892   -0.000100
      7          8           0       -2.259580   -1.607706   -0.000449
      8          6           0        1.574301    1.041670    0.000458
      9          6           0        2.299973   -0.322602   -0.000125
     10          8           0        1.720225   -1.401592   -0.000709
     11          7           0        3.662127   -0.231627    0.001662
     12          1           0       -2.322292   -0.009394   -2.149088
     13          1           0       -2.271537    1.529218   -1.263479
     14          1           0       -0.018376    1.017823   -2.074817
     15          1           0       -0.082044   -0.610250   -1.402600
     16          1           0       -0.018199    1.015700    2.075572
     17          1           0       -0.082349   -0.611690    1.401690
     18          1           0       -2.271450    1.528336    1.264634
     19          1           0       -2.322360   -0.011015    2.149004
     20          1           0       -3.607032   -0.122119   -0.000125
     21          1           0       -1.297557   -1.740440   -0.001568
     22          1           0        1.913263    1.605624   -0.880542
     23          1           0        1.913274    1.604719    0.881981
     24          1           0        4.148899    0.651836   -0.005973
     25          1           0        4.204051   -1.084273   -0.004403
 ---------------------------------------------------------------------

 SCF Done:  E(UB3LYP) =  -535.327382027     A.U. after   29 cycles

 The electronic state is 2-A.
 Alpha  occ. eigenvalues --  -19.02491 -18.98380 -14.21698 -14.20424 -10.16622
 Alpha  occ. eigenvalues --  -10.12636 -10.09493 -10.09031 -10.09026 -10.07110
 Alpha  occ. eigenvalues --  -10.07108  -0.93324  -0.92815  -0.82604  -0.79233
 Alpha  occ. eigenvalues --   -0.69449  -0.66112  -0.61124  -0.53719  -0.53593
 Alpha  occ. eigenvalues --   -0.47855  -0.45804  -0.43087  -0.40419  -0.38270
 Alpha  occ. eigenvalues --   -0.37193  -0.36565  -0.35793  -0.35509  -0.32864
 Alpha  occ. eigenvalues --   -0.31530  -0.30053  -0.29004  -0.27700  -0.26203
 Alpha  occ. eigenvalues --   -0.25398  -0.25325  -0.23808  -0.21727  -0.17811
 Alpha  occ. eigenvalues --   -0.16909  -0.16377  -0.10892   0.04526
 Alpha virt. eigenvalues --    0.06603   0.08008   0.08607   0.09306   0.10017
 Alpha virt. eigenvalues --    0.10060   0.11526   0.11616   0.12003   0.12278
 Alpha virt. eigenvalues --    0.13545   0.13811   0.14314   0.15392   0.16826

  Beta  occ. eigenvalues --  -19.02487 -18.98373 -14.21599 -14.20420 -10.16619
  Beta  occ. eigenvalues --  -10.12635 -10.09444 -10.09018 -10.09013 -10.07103
  Beta  occ. eigenvalues --  -10.07101  -0.93302  -0.92804  -0.82586  -0.79101
  Beta  occ. eigenvalues --   -0.69426  -0.66093  -0.61052  -0.53677  -0.53564
  Beta  occ. eigenvalues --   -0.47740  -0.45750  -0.43014  -0.40366  -0.38209
  Beta  occ. eigenvalues --   -0.37168  -0.36538  -0.35758  -0.35492  -0.32831
  Beta  occ. eigenvalues --   -0.31508  -0.30019  -0.28980  -0.27681  -0.26173
  Beta  occ. eigenvalues --   -0.25373  -0.25299  -0.23785  -0.21706  -0.17801
  Beta  occ. eigenvalues --   -0.16885  -0.16303  -0.10871
  Beta virt. eigenvalues --    0.06592   0.08178   0.08291   0.09258   0.09482
  Beta virt. eigenvalues --    0.10456   0.11158   0.11554   0.11640   0.12366
  Beta virt. eigenvalues --    0.12817   0.13872   0.14349   0.14861   0.15499

 Mulliken charges and spin densities:
               1          2
     1  C   -0.083446  -0.451817
     2  C    0.142037  -0.425729
     3  N   -0.049066   0.234949
     4  C    0.136643  -0.421088
     5  C   -0.082034  -0.451734
     6  C   -0.148158   0.073976
     7  O   -0.209620   0.004152
     8  C    1.449397  -1.851416
     9  C    0.042136   0.102893
    10  O   -0.316847  -0.067477
    11  N   -0.278746  -0.023134
    12  H    0.103057   0.072411
    13  H    0.015025   0.120929
    14  H   -0.074190   0.228743
    15  H    0.152913   0.003449
    16  H   -0.069023   0.223114
    17  H    0.151478   0.004880
    18  H    0.014798   0.121086
    19  H    0.104085   0.071210
    20  H    0.070366   0.125481
    21  H    0.272002  -0.022821
    22  H   -0.593906   0.798196
    23  H   -0.585959   0.790191
    24  H   -0.723830   1.014075
    25  H   -0.439114   0.725481
 Sum of Mulliken charges =  -1.00000   1.00000

 Dipole moment (field-independent basis, Debye):
    X=            -10.2790    Y=             -1.8055    Z=              0.0512  Tot=             10.4365
 Quadrupole moment (field-independent basis, Debye-Ang):
   XX=           -150.6722   YY=           -106.1553   ZZ=            -92.0613
   XY=            -12.7105   XZ=              0.1657   YZ=              0.0810

 Summary of Natural Population Analysis:

                                       Natural Population
                Natural  -----------------------------------------------
    Atom  No    Charge         Core      Valence    Rydberg      Total
 -----------------------------------------------------------------------
      C    1   -0.20567      0.99961     2.19691    0.00915     3.20567
      C    2   -0.09250      0.99960     2.08049    0.01240     3.09250
      N    3   -0.28365      0.99972     2.76793    0.01600     3.78365
      C    4   -0.09248      0.99960     2.08049    0.01239     3.09248
      C    5   -0.20567      0.99961     2.19691    0.00915     3.20567
      C    6    0.06487      0.99955     1.92131    0.01427     2.93513
      O    7   -0.37779      0.99990     3.37112    0.00677     4.37779
      C    8   -0.12800      0.99957     2.11456    0.01387     3.12800
      C    9    0.33380      0.99970     1.64336    0.02314     2.66620
      O   10   -0.33644      0.99987     3.33038    0.00619     4.33644
      N   11   -0.39937      0.99971     2.89076    0.00890     3.89937
      H   12    0.10108      0.00000     0.39805    0.00087     0.39892
      H   13    0.09941      0.00000     0.39922    0.00137     0.40059
      H   14    0.09885      0.00000     0.39984    0.00131     0.40115
      H   15    0.09053      0.00000     0.40773    0.00173     0.40947
      H   16    0.09877      0.00000     0.39992    0.00131     0.40123
      H   17    0.09056      0.00000     0.40771    0.00173     0.40944
      H   18    0.09940      0.00000     0.39924    0.00137     0.40060
      H   19    0.10107      0.00000     0.39806    0.00087     0.39893
      H   20    0.08629      0.00000     0.41270    0.00102     0.41371
      H   21    0.23335      0.00000     0.26369    0.00296     0.26665
      H   22    0.11002      0.00000     0.38741    0.00257     0.38998
      H   23    0.10990      0.00000     0.38758    0.00251     0.39010
      H   24    0.20607      0.00000     0.25341    0.04052     0.29393
      H   25    0.19761      0.00000     0.29816    0.00423     0.30239
 =======================================================================
   * Total *    0.00000     10.99644    31.80693    0.19663    43.00000

 Normal termination of Gaussian 16 at Mon Dec 14 13:25:11 2020.
