 Gaussian 16, Revision A.03,

 -----------------------------------------------------------
 # opt freq B3LYP/6-31G(d) empiricaldispersion=gd3bj scf=xqc
 -----------------------------------------------------------

 ------------------------------
 CID_13574890_JID_5711_neutraal
 ------------------------------
 Symbolic Z-matrix:
 Charge =  0 Multiplicity = 1

 SCF Done:  E(RB3LYP) =  -769.246844915     A.U. after   14 cycles
 SCF Done:  E(RB3LYP) =  -769.252855506     A.U. after   12 cycles
 SCF Done:  E(RB3LYP) =  -769.253702486     A.U. after   12 cycles
 SCF Done:  E(RB3LYP) =  -769.256024787     A.U. after   12 cycles
 SCF Done:  E(RB3LYP) =  -769.259124565     A.U. after   12 cycles
 SCF Done:  E(RB3LYP) =  -769.262226219     A.U. after   14 cycles
 SCF Done:  E(RB3LYP) =  -769.263224745     A.U. after   11 cycles
 SCF Done:  E(RB3LYP) =  -769.262968849     A.U. after   12 cycles
 SCF Done:  E(RB3LYP) =  -769.263952005     A.U. after   12 cycles
 SCF Done:  E(RB3LYP) =  -769.264655393     A.U. after   11 cycles
 SCF Done:  E(RB3LYP) =  -769.266170402     A.U. after    7 cycles
 SCF Done:  E(RB3LYP) =  -769.266170541     A.U. after    7 cycles
 SCF Done:  E(RB3LYP) =  -769.266170681     A.U. after    7 cycles
 SCF Done:  E(RB3LYP) =  -769.266170769     A.U. after    7 cycles
 SCF Done:  E(RB3LYP) =  -769.266170794     A.U. after    6 cycles
 Optimization completed.
    -- Stationary point found.
 Normal termination of Gaussian 16 at Thu Dec 10 17:16:41 2020.

 --------------------------------------------------------------------
 #N Geom=AllCheck Guess=TCheck SCRF=Check GenChk RB3LYP/6-31G(d) Freq
 --------------------------------------------------------------------

 Structure from the checkpoint file:  "JID_5711.chk"
 ------------------------------
 CID_13574890_JID_5711_neutraal
 ------------------------------
 Charge =  0 Multiplicity = 1

 SCF Done:  E(RB3LYP) =  -769.266170794     A.U. after    1 cycles

  Exact polarizability: 131.500   6.002 126.612  -0.688   2.987 107.239
 Approx polarizability: 163.594   1.731 171.299  -4.512   9.298 156.672

                      1                      2                      3
                      A                      A                      A
 Frequencies --     30.4383                46.6937                53.8355
 Red. masses --      3.6558                 2.9092                 3.0230
 Frc consts  --      0.0020                 0.0037                 0.0052
 IR Inten    --      1.1730                 1.8204                 1.1598

                      4                      5                      6
                      A                      A                      A
 Frequencies --     56.5055                72.7667                74.1302
 Red. masses --      2.2318                 2.7345                 4.3214
 Frc consts  --      0.0042                 0.0085                 0.0140
 IR Inten    --      0.4825                 1.4691                 0.1116

                      7                      8                      9
                      A                      A                      A
 Frequencies --     85.9189                98.2219               108.1700
 Red. masses --      1.4600                 3.0312                 2.6619
 Frc consts  --      0.0063                 0.0172                 0.0184
 IR Inten    --      0.3740                 2.0085                 0.8928

                     10                     11                     12
                      A                      A                      A
 Frequencies --    139.0387               157.8740               179.4002
 Red. masses --      2.1011                 2.9062                 2.6165
 Frc consts  --      0.0239                 0.0427                 0.0496
 IR Inten    --      1.3741                 3.2560                 2.3891

                     13                     14                     15
                      A                      A                      A
 Frequencies --    214.9282               224.0721               241.4086
 Red. masses --      2.5071                 1.4755                 2.2754
 Frc consts  --      0.0682                 0.0436                 0.0781
 IR Inten    --      2.9343                 0.6422                 2.0244

                     16                     17                     18
                      A                      A                      A
 Frequencies --    257.6767               270.4005               314.2039
 Red. masses --      1.5452                 1.5935                 2.5379
 Frc consts  --      0.0605                 0.0686                 0.1476
 IR Inten    --      0.9504                 1.5520                 0.6807

                     19                     20                     21
                      A                      A                      A
 Frequencies --    349.2148               367.7318               403.6562
 Red. masses --      2.8733                 3.5942                 3.2901
 Frc consts  --      0.2065                 0.2864                 0.3159
 IR Inten    --      9.4685                 2.2545                 3.3134

                     22                     23                     24
                      A                      A                      A
 Frequencies --    419.4253               459.8317               464.6049
 Red. masses --      3.1806                 3.2072                 3.5371
 Frc consts  --      0.3297                 0.3995                 0.4498
 IR Inten    --      3.3385                 5.5597                 1.8907

                     25                     26                     27
                      A                      A                      A
 Frequencies --    550.9508               597.0164               606.5796
 Red. masses --      4.2176                 3.9372                 3.4082
 Frc consts  --      0.7543                 0.8268                 0.7388
 IR Inten    --     19.8157                 1.6465                10.2669

                     28                     29                     30
                      A                      A                      A
 Frequencies --    641.7922               751.3881               810.2224
 Red. masses --      5.9234                 3.3911                 1.1551
 Frc consts  --      1.4375                 1.1280                 0.4467
 IR Inten    --      1.8670                20.5438                 8.1333

                     31                     32                     33
                      A                      A                      A
 Frequencies --    814.7379               818.0255               852.2862
 Red. masses --      1.1145                 1.1740                 2.6693
 Frc consts  --      0.4359                 0.4628                 1.1424
 IR Inten    --      2.3234                 8.4245                 6.6850

                     34                     35                     36
                      A                      A                      A
 Frequencies --    876.7681               918.3102               928.6006
 Red. masses --      3.1212                 2.8032                 3.0704
 Frc consts  --      1.4136                 1.3928                 1.5599
 IR Inten    --     52.2976                 0.9356                73.5938

                     37                     38                     39
                      A                      A                      A
 Frequencies --    951.1314               968.3559              1030.4692
 Red. masses --      4.3536                 3.4416                 1.9751
 Frc consts  --      2.3205                 1.9014                 1.2357
 IR Inten    --    129.4795                63.7729               112.6035

                     40                     41                     42
                      A                      A                      A
 Frequencies --   1035.7403              1056.1563              1069.9743
 Red. masses --      2.8071                 3.8723                 3.0621
 Frc consts  --      1.7742                 2.5449                 2.0654
 IR Inten    --      9.3886                31.9546                42.2586

                     43                     44                     45
                      A                      A                      A
 Frequencies --   1077.0673              1103.3425              1125.7764
 Red. masses --      1.8265                 2.4677                 1.9424
 Frc consts  --      1.2484                 1.7700                 1.4504
 IR Inten    --     14.4005                52.6988                 4.9361

                     46                     47                     48
                      A                      A                      A
 Frequencies --   1128.7274              1147.0056              1168.3564
 Red. masses --      1.9884                 3.1447                 3.5666
 Frc consts  --      1.4926                 2.4376                 2.8685
 IR Inten    --     11.2959               208.9432               184.9998

                     49                     50                     51
                      A                      A                      A
 Frequencies --   1183.8981              1216.1192              1224.4628
 Red. masses --      2.1764                 1.7363                 2.1283
 Frc consts  --      1.7973                 1.5129                 1.8801
 IR Inten    --     53.7483                26.9477                35.2837

                     52                     53                     54
                      A                      A                      A
 Frequencies --   1234.2568              1284.8482              1341.3311
 Red. masses --      2.5544                 3.5174                 1.1199
 Frc consts  --      2.2927                 3.4212                 1.1871
 IR Inten    --    203.9500               241.5247                 9.5063

                     55                     56                     57
                      A                      A                      A
 Frequencies --   1347.1831              1352.5646              1363.5813
 Red. masses --      1.2323                 1.1214                 1.2910
 Frc consts  --      1.3177                 1.2087                 1.4143
 IR Inten    --     21.2646                 8.3232                23.6804

                     58                     59                     60
                      A                      A                      A
 Frequencies --   1389.0162              1408.5876              1414.5864
 Red. masses --      1.2812                 1.1977                 1.2205
 Frc consts  --      1.4564                 1.4001                 1.4389
 IR Inten    --      7.7189                11.3120                 9.7963

                     61                     62                     63
                      A                      A                      A
 Frequencies --   1420.1735              1423.9792              1436.8636
 Red. masses --      1.2244                 1.3204                 1.2457
 Frc consts  --      1.4550                 1.5775                 1.5153
 IR Inten    --      7.0609                43.3623                24.6351

                     64                     65                     66
                      A                      A                      A
 Frequencies --   1437.9850              1442.0657              1449.0841
 Red. masses --      1.2866                 1.2906                 1.3254
 Frc consts  --      1.5675                 1.5813                 1.6398
 IR Inten    --     18.1076                36.7678                12.6582

                     67                     68                     69
                      A                      A                      A
 Frequencies --   1461.6262              1498.2152              1503.7304
 Red. masses --      1.3020                 1.0508                 1.0463
 Frc consts  --      1.6389                 1.3897                 1.3940
 IR Inten    --      3.0161                13.8361                 9.9965

                     70                     71                     72
                      A                      A                      A
 Frequencies --   1514.0393              1517.0909              1519.3335
 Red. masses --      1.0430                 1.0446                 1.0475
 Frc consts  --      1.4087                 1.4165                 1.4247
 IR Inten    --      2.3448                 4.7852                 2.6753

                     73                     74                     75
                      A                      A                      A
 Frequencies --   1521.2697              1525.0752              1532.2187
 Red. masses --      1.0529                 1.0543                 1.0488
 Frc consts  --      1.4357                 1.4448                 1.4507
 IR Inten    --      0.8693                 1.7936                 2.0941

                     76                     77                     78
                      A                      A                      A
 Frequencies --   1539.3495              1544.0897              1548.3910
 Red. masses --      1.0887                 1.0825                 1.0828
 Frc consts  --      1.5200                 1.5206                 1.5295
 IR Inten    --      7.6227                 2.1189                 5.0657

                     79                     80                     81
                      A                      A                      A
 Frequencies --   1829.2974              3043.2058              3046.0098
 Red. masses --     10.8892                 1.0667                 1.0770
 Frc consts  --     21.4691                 5.8202                 5.8872
 IR Inten    --    215.0972                44.3889                39.5749

                     82                     83                     84
                      A                      A                      A
 Frequencies --   3055.1410              3057.4144              3061.4870
 Red. masses --      1.0446                 1.0412                 1.0370
 Frc consts  --      5.7446                 5.7343                 5.7266
 IR Inten    --     31.7419                30.0914                17.1215

                     85                     86                     87
                      A                      A                      A
 Frequencies --   3065.9843              3069.2102              3072.0322
 Red. masses --      1.0577                 1.0598                 1.0370
 Frc consts  --      5.8578                 5.8818                 5.7661
 IR Inten    --     28.5357                23.9017                 1.5018

                     88                     89                     90
                      A                      A                      A
 Frequencies --   3098.9647              3101.4047              3107.9050
 Red. masses --      1.0864                 1.0976                 1.1060
 Frc consts  --      6.1471                 6.2205                 6.2941
 IR Inten    --     34.9631                26.8367                13.7890

                     91                     92                     93
                      A                      A                      A
 Frequencies --   3112.5355              3122.3897              3127.5147
 Red. masses --      1.1080                 1.1001                 1.0963
 Frc consts  --      6.3244                 6.3194                 6.3179
 IR Inten    --      6.9569                34.2897                28.4351

                     94                     95                     96
                      A                      A                      A
 Frequencies --   3129.4745              3134.5849              3141.4242
 Red. masses --      1.1007                 1.1004                 1.1040
 Frc consts  --      6.3512                 6.3705                 6.4190
 IR Inten    --     31.0257                 5.1884                46.9581

                     97                     98                     99
                      A                      A                      A
 Frequencies --   3148.4120              3176.2083              3185.4358
 Red. masses --      1.1039                 1.1003                 1.1035
 Frc consts  --      6.4471                 6.5398                 6.5972
 IR Inten    --     41.3288                19.7773                 7.8898

 - Thermochemistry -
 -------------------
 Temperature   298.150 Kelvin.  Pressure   1.00000 Atm.
 Atom     1 has atomic number  6 and mass  12.00000

 Molecular mass:   220.13107 amu.
 Principal axes and moments of inertia in atomic units:
                           1         2         3
     Eigenvalues --  2574.508853991.153794901.30709
           X            0.99936   0.03445   0.00932
           Y           -0.03436   0.99937  -0.00887
           Z           -0.00962   0.00854   0.99992
 This molecule is an asymmetric top.
 Rotational symmetry number  1.
 Warning -- assumption of classical behavior for rotation
           may cause significant error
 Rotational temperatures (Kelvin)      0.03364     0.02170     0.01767
 Rotational constants (GHZ):           0.70100     0.45219     0.36822
 Zero-point vibrational energy     799105.3 (Joules/Mol)
                                  190.99076 (Kcal/Mol)
 Warning -- explicit consideration of  27 degrees of freedom as
           vibrations may cause significant error
 Vibrational temperatures:     43.79    67.18    77.46    81.30   104.70
          (Kelvin)            106.66   123.62   141.32   155.63   200.05
                              227.15   258.12   309.23   322.39   347.33
                              370.74   389.05   452.07   502.44   529.08
                              580.77   603.46   661.60   668.46   792.70
                              858.97   872.73   923.40  1081.08  1165.73
                             1172.23  1176.96  1226.25  1261.47  1321.24
                             1336.05  1368.47  1393.25  1482.62  1490.20
                             1519.57  1539.45  1549.66  1587.46  1619.74
                             1623.99  1650.29  1681.00  1703.37  1749.72
                             1761.73  1775.82  1848.61  1929.88  1938.30
                             1946.04  1961.89  1998.48  2026.64  2035.27
                             2043.31  2048.79  2067.33  2068.94  2074.81
                             2084.91  2102.95  2155.60  2163.53  2178.36
                             2182.76  2185.98  2188.77  2194.24  2204.52
                             2214.78  2221.60  2227.79  2631.95  4378.49
                             4382.53  4395.67  4398.94  4404.80  4411.27
                             4415.91  4419.97  4458.72  4462.23  4471.58
                             4478.24  4492.42  4499.80  4502.62  4509.97
                             4519.81  4529.86  4569.86  4583.13

 Zero-point correction=                           0.304363 (Hartree/Particle)
 Thermal correction to Energy=                    0.322704
 Thermal correction to Enthalpy=                  0.323648
 Thermal correction to Gibbs Free Energy=         0.256487
 Sum of electronic and zero-point Energies=           -768.961808
 Sum of electronic and thermal Energies=              -768.943467
 Sum of electronic and thermal Enthalpies=            -768.942523
 Sum of electronic and thermal Free Energies=         -769.009684

                     E (Thermal)             CV                S
                      KCal/Mol        Cal/Mol-Kelvin    Cal/Mol-Kelvin
 Total                  202.500             64.230            141.353
 Electronic               0.000              0.000              0.000
 Translational            0.889              2.981             42.070
 Rotational               0.889              2.981             32.288
 Vibrational            200.722             58.268             66.995
 Vibration     1          0.594              1.984              5.801
 Vibration     2          0.595              1.979              4.953
 Vibration     3          0.596              1.976              4.671
 Vibration     4          0.596              1.975              4.576
 Vibration     5          0.599              1.967              4.077
 Vibration     6          0.599              1.966              4.041
 Vibration     7          0.601              1.959              3.751
 Vibration     8          0.604              1.950              3.489
 Vibration     9          0.606              1.943              3.301
 Vibration    10          0.615              1.914              2.817
 Vibration    11          0.621              1.894              2.575
 Vibration    12          0.629              1.868              2.335
 Vibration    13          0.645              1.818              2.001
 Vibration    14          0.649              1.804              1.926
 Vibration    15          0.658              1.777              1.792
 Vibration    16          0.667              1.750              1.677
 Vibration    17          0.674              1.728              1.594
 Vibration    18          0.702              1.647              1.340
 Vibration    19          0.726              1.577              1.170
 Vibration    20          0.740              1.539              1.089
 Vibration    21          0.769              1.462              0.949
 Vibration    22          0.782              1.428              0.894
 Vibration    23          0.818              1.339              0.767
 Vibration    24          0.822              1.329              0.753
 Vibration    25          0.906              1.138              0.542
 Vibration    26          0.955              1.038              0.455
 Vibration    27          0.965              1.018              0.438

                           ! Non-Optimized Parameters !
 Normal termination of Gaussian 16 at Thu Dec 10 17:29:10 2020.

 ----------------------------------------------------------------------
 # B3LYP/6-311++G(d,p) empiricaldispersion=gd3bj scf=xqc pop=npa geom=c
 heck
 ----------------------------------------------------------------------

 --------------------------------------
 CID_13574890_JID_5711_Energie_neutraal
 --------------------------------------
 Structure from the checkpoint file:  "JID_5711.chk"
 Charge =  0 Multiplicity = 1

 SCF Done:  E(RB3LYP) =  -769.494788847     A.U. after   15 cycles
 Normal termination of Gaussian 16 at Thu Dec 10 17:34:13 2020.

 ----------------------------------------------------------------------
 # B3LYP/6-311++G(d,p) empiricaldispersion=gd3bj scf=xqc pop=npa geom=c
 heck
 ----------------------------------------------------------------------

 ------------------------------------
 CID_13574890_JID_5711_Energie_kation
 ------------------------------------
 Structure from the checkpoint file:  "JID_5711.chk"
 Charge =  1 Multiplicity = 2

 SCF Done:  E(UB3LYP) =  -769.161478578     A.U. after   27 cycles
 Normal termination of Gaussian 16 at Thu Dec 10 17:52:10 2020.
 Gaussian 16:  ES64L-G16RevA.03 25-Dec-2016

 ----------------------------------------------------------------------
 # B3LYP/6-311++G(d,p) empiricaldispersion=gd3bj scf=xqc pop=npa geom=c
 heck
 ----------------------------------------------------------------------

 -----------------------------------
 CID_13574890_JID_5711_Energie_anion
 -----------------------------------
 Structure from the checkpoint file:  "JID_5711.chk"
 Charge = -1 Multiplicity = 2

                         Standard orientation:
 ---------------------------------------------------------------------
 Center     Atomic      Atomic             Coordinates (Angstroms)
 Number     Number       Type             X           Y           Z
 ---------------------------------------------------------------------
      1          6           0        3.483396    1.121878   -0.188875
      2          6           0        2.644557    1.176034    1.081596
      3          8           0        2.075618   -0.077352    1.488874
      4          6           0        1.081473   -0.664560    0.708291
      5          6           0       -0.097160    0.301885    0.441160
      6          8           0        0.144312    1.045476   -0.694599
      7          6           0       -0.636950    2.240422   -0.875947
      8          6           0       -1.747569    2.023283   -1.893163
      9          8           0       -1.281622   -0.536173    0.284985
     10          6           0       -2.448627   -0.096156    0.821790
     11          8           0       -2.581148    0.965508    1.389109
     12          6           0       -3.542570   -1.110370    0.598930
     13          8           0        1.669232   -1.176445   -0.463991
     14          6           0        0.842454   -1.936552   -1.347611
     15          6           0        0.337556   -3.244585   -0.745950
     16          1           0        4.011420    2.075715   -0.313688
     17          1           0        2.856854    0.943806   -1.063496
     18          1           0        4.222233    0.317721   -0.123207
     19          1           0        3.267789    1.455637    1.936531
     20          1           0        1.858683    1.936671    0.986760
     21          1           0        0.686199   -1.476069    1.333136
     22          1           0       -0.267243    0.929875    1.320614
     23          1           0       -1.042559    2.567978    0.086798
     24          1           0        0.065811    2.998820   -1.236134
     25          1           0       -2.493315    1.313403   -1.525242
     26          1           0       -2.256249    2.971160   -2.102842
     27          1           0       -1.333856    1.636753   -2.829931
     28          1           0       -4.473840   -0.746021    1.033081
     29          1           0       -3.671999   -1.285808   -0.474070
     30          1           0       -3.264794   -2.066708    1.053527
     31          1           0        0.006928   -1.325860   -1.706983
     32          1           0        1.494733   -2.144804   -2.201088
     33          1           0       -0.395173   -3.068387    0.046999
     34          1           0       -0.151670   -3.843909   -1.522622
     35          1           0        1.169546   -3.825770   -0.334483
 ---------------------------------------------------------------------

 SCF Done:  E(UB3LYP) =  -769.481025206     A.U. after   33 cycles
 SCF Done:  E(UB3LYP) =  -769.481025206     a.u. after    1 cycles

 The electronic state is 2-A.
 Alpha  occ. eigenvalues --  -19.07650 -19.05017 -19.04210 -19.03030 -19.02578
 Alpha  occ. eigenvalues --  -10.21777 -10.19212 -10.18415 -10.12990 -10.12974
 Alpha  occ. eigenvalues --  -10.11791 -10.08131 -10.06759 -10.06460 -10.06247
 Alpha  occ. eigenvalues --   -1.02689  -0.98490  -0.96315  -0.92739  -0.91993
 Alpha  occ. eigenvalues --   -0.70111  -0.67456  -0.66127  -0.65417  -0.61874
 Alpha  occ. eigenvalues --   -0.57438  -0.53466  -0.52824  -0.50161  -0.48477
 Alpha  occ. eigenvalues --   -0.44103  -0.42193  -0.41507  -0.40435  -0.39946
 Alpha  occ. eigenvalues --   -0.37707  -0.37128  -0.36220  -0.35300  -0.34969
 Alpha  occ. eigenvalues --   -0.33322  -0.32998  -0.31860  -0.31498  -0.30187
 Alpha  occ. eigenvalues --   -0.29572  -0.29300  -0.28582  -0.28462  -0.27929
 Alpha  occ. eigenvalues --   -0.27120  -0.26337  -0.24919  -0.23249  -0.22410
 Alpha  occ. eigenvalues --   -0.21826  -0.20080  -0.19359  -0.18312  -0.16922
 Alpha  occ. eigenvalues --    0.04334
 Alpha virt. eigenvalues --    0.06061   0.06891   0.07396   0.08175   0.08551
 Alpha virt. eigenvalues --    0.08967   0.09205   0.09641   0.09990   0.11091
 Alpha virt. eigenvalues --    0.11149   0.11339   0.11967   0.12517   0.13064

  Beta  occ. eigenvalues --  -19.07642 -19.05010 -19.04210 -19.03030 -19.02570
  Beta  occ. eigenvalues --  -10.21774 -10.19211 -10.18409 -10.12974 -10.12966
  Beta  occ. eigenvalues --  -10.11781 -10.08065 -10.06724 -10.06449 -10.06218
  Beta  occ. eigenvalues --   -1.02677  -0.98482  -0.96304  -0.92724  -0.91988
  Beta  occ. eigenvalues --   -0.70089  -0.67433  -0.66070  -0.65389  -0.61831
  Beta  occ. eigenvalues --   -0.57401  -0.53403  -0.52784  -0.50134  -0.48455
  Beta  occ. eigenvalues --   -0.44076  -0.42171  -0.41479  -0.40418  -0.39923
  Beta  occ. eigenvalues --   -0.37676  -0.37087  -0.36198  -0.35273  -0.34937
  Beta  occ. eigenvalues --   -0.33283  -0.32973  -0.31825  -0.31445  -0.30150
  Beta  occ. eigenvalues --   -0.29540  -0.29262  -0.28556  -0.28431  -0.27897
  Beta  occ. eigenvalues --   -0.27094  -0.26315  -0.24902  -0.23234  -0.22400
  Beta  occ. eigenvalues --   -0.21814  -0.20056  -0.19341  -0.18289  -0.16913
  Beta virt. eigenvalues --    0.06320   0.07042   0.07521   0.07809   0.08524
  Beta virt. eigenvalues --    0.08762   0.09301   0.09569   0.09931   0.10319
  Beta virt. eigenvalues --    0.11375   0.11479   0.11876   0.12430   0.12825

 Mulliken charges and spin densities:
               1          2
     1  C    0.083335  -0.519425
     2  C   -0.160882   0.043948
     3  O    0.034290   0.003815
     4  C   -0.451668  -0.455675
     5  C   -0.298484  -0.239878
     6  O    0.040196   0.024670
     7  C   -0.539681   0.494347
     8  C    1.185036  -1.647977
     9  O    0.064200   0.040552
    10  C   -1.077558   1.335088
    11  O   -0.219552   0.009033
    12  C    1.991372  -2.539430
    13  O    0.050825   0.012431
    14  C   -0.622713   0.486230
    15  C    0.518901  -0.962800
    16  H   -0.109275   0.234105
    17  H    0.137048   0.051275
    18  H    0.139122  -0.002663
    19  H   -0.049151   0.225706
    20  H    0.026072   0.101188
    21  H    0.052916   0.140117
    22  H    0.146866   0.098523
    23  H    0.117023   0.039449
    24  H   -0.256947   0.422310
    25  H   -0.051655   0.219993
    26  H   -0.306320   0.452696
    27  H   -0.218386   0.361545
    28  H   -0.240289   0.411766
    29  H   -0.533057   0.717193
    30  H   -0.480872   0.662169
    31  H    0.464875  -0.259664
    32  H   -0.131085   0.296594
    33  H    0.082395   0.077585
    34  H   -0.446970   0.588963
    35  H    0.060071   0.076223
 Sum of Mulliken charges =  -1.00000   1.00000

 Dipole moment (field-independent basis, Debye):
    X=              5.3787    Y=              1.9651    Z=              2.1469  Tot=              6.1157
 Quadrupole moment (field-independent basis, Debye-Ang):
   XX=           -162.0087   YY=           -148.6714   ZZ=           -132.8416
   XY=             -7.0907   XZ=             -2.6639   YZ=              2.1434

 Summary of Natural Population Analysis:

                                       Natural Population
                Natural  -----------------------------------------------
    Atom  No    Charge         Core      Valence    Rydberg      Total
 -----------------------------------------------------------------------
      C    1   -0.30087      0.99966     2.29679    0.00443     3.30087
      C    2   -0.00984      0.99958     1.99924    0.01102     3.00984
      O    3   -0.29593      0.99988     3.28756    0.00850     4.29593
      C    4    0.21601      0.99953     1.76360    0.02086     2.78399
      C    5    0.19313      0.99952     1.79014    0.01720     2.80687
      O    6   -0.29819      0.99986     3.28825    0.01009     4.29819
      C    7   -0.01422      0.99958     2.00287    0.01177     3.01422
      C    8   -0.29433      0.99966     2.28926    0.00542     3.29433
      O    9   -0.29956      0.99985     3.28827    0.01144     4.29956
      C   10    0.41267      0.99970     1.56269    0.02494     2.58733
      O   11   -0.30761      0.99987     3.30184    0.00590     4.30761
      C   12   -0.33201      0.99961     2.32668    0.00572     3.33201
      O   13   -0.30510      0.99987     3.29552    0.00971     4.30510
      C   14   -0.01417      0.99958     2.00208    0.01251     3.01417
      C   15   -0.30241      0.99966     2.29802    0.00472     3.30241
      H   16    0.09465      0.00000     0.40412    0.00123     0.40535
      H   17    0.11142      0.00000     0.38693    0.00166     0.38858
      H   18    0.09964      0.00000     0.39913    0.00123     0.40036
      H   19    0.08561      0.00000     0.41305    0.00134     0.41439
      H   20    0.07994      0.00000     0.41847    0.00159     0.42006
      H   21    0.08390      0.00000     0.41412    0.00198     0.41610
      H   22    0.09231      0.00000     0.40571    0.00198     0.40769
      H   23    0.09037      0.00000     0.40820    0.00143     0.40963
      H   24    0.08676      0.00000     0.41191    0.00133     0.41324
      H   25    0.10033      0.00000     0.39826    0.00142     0.39967
      H   26    0.10083      0.00000     0.39789    0.00128     0.39917
      H   27    0.10179      0.00000     0.39696    0.00124     0.39821
      H   28    0.11067      0.00000     0.38819    0.00114     0.38933
      H   29    0.11937      0.00000     0.37773    0.00289     0.38063
      H   30    0.11692      0.00000     0.38079    0.00229     0.38308
      H   31    0.08924      0.00000     0.40843    0.00233     0.41076
      H   32    0.08637      0.00000     0.41241    0.00122     0.41363
      H   33    0.10202      0.00000     0.39633    0.00166     0.39798
      H   34    0.10377      0.00000     0.39495    0.00128     0.39623
      H   35    0.09653      0.00000     0.40242    0.00105     0.40347
 =======================================================================
   * Total *   -0.00000     14.99541    44.80883    0.19577    60.00000

 Normal termination of Gaussian 16 at Thu Dec 10 18:09:16 2020.
