 Gaussian 16, Revision A.03,

 -----------------------------------------------------------
 # opt freq B3LYP/6-31G(d) empiricaldispersion=gd3bj scf=xqc
 -----------------------------------------------------------

 -------------------------------
 CID_131068375_JID_1297_neutraal
 -------------------------------
 Symbolic Z-matrix:
 Charge =  0 Multiplicity = 1

 SCF Done:  E(RB3LYP) =  -1166.24901003     A.U. after   13 cycles
 SCF Done:  E(RB3LYP) =  -1166.25246780     A.U. after   11 cycles
 SCF Done:  E(RB3LYP) =  -1166.25004881     A.U. after   11 cycles
 SCF Done:  E(RB3LYP) =  -1166.25319378     A.U. after   11 cycles
 SCF Done:  E(RB3LYP) =  -1166.25391350     A.U. after   11 cycles
 SCF Done:  E(RB3LYP) =  -1166.25417737     A.U. after   10 cycles
 SCF Done:  E(RB3LYP) =  -1166.25424804     A.U. after   10 cycles
 SCF Done:  E(RB3LYP) =  -1166.25428465     A.U. after   10 cycles
 SCF Done:  E(RB3LYP) =  -1166.25430391     A.U. after   10 cycles
 SCF Done:  E(RB3LYP) =  -1166.25431483     A.U. after    9 cycles
 SCF Done:  E(RB3LYP) =  -1166.26043614     A.U. after   11 cycles
 SCF Done:  E(RB3LYP) =  -1166.26044823     A.U. after    9 cycles
 SCF Done:  E(RB3LYP) =  -1166.26045176     A.U. after    9 cycles
 SCF Done:  E(RB3LYP) =  -1166.26045297     A.U. after    9 cycles
 SCF Done:  E(RB3LYP) =  -1166.26045307     A.U. after    8 cycles
 SCF Done:  E(RB3LYP) =  -1166.26045294     A.U. after    7 cycles
 Optimization completed.
    -- Stationary point found.
 Normal termination of Gaussian 16 at Tue Dec  8 19:56:02 2020.

 --------------------------------------------------------------------
 #N Geom=AllCheck Guess=TCheck SCRF=Check GenChk RB3LYP/6-31G(d) Freq
 --------------------------------------------------------------------

 Structure from the checkpoint file:  "JID_1297.chk"
 -------------------------------
 CID_131068375_JID_1297_neutraal
 -------------------------------
 Charge =  0 Multiplicity = 1

 SCF Done:  E(RB3LYP) =  -1166.26045294     A.U. after    1 cycles

  Exact polarizability: 135.660  -2.339 116.789   4.157   2.387 113.300
 Approx polarizability: 183.551  -2.587 166.501   5.246   5.175 177.869

                      1                      2                      3
                      A                      A                      A
 Frequencies --     38.0275                57.1151               103.3220
 Red. masses --      5.5180                 8.7384                 3.3439
 Frc consts  --      0.0047                 0.0168                 0.0210
 IR Inten    --      0.7679                 0.7457                 2.6281

                      4                      5                      6
                      A                      A                      A
 Frequencies --    149.9252               160.6153               198.4847
 Red. masses --      2.5493                 3.0261                 2.0060
 Frc consts  --      0.0338                 0.0460                 0.0466
 IR Inten    --      0.1611                 1.9134                 2.1001

                      7                      8                      9
                      A                      A                      A
 Frequencies --    227.0317               257.0012               276.9403
 Red. masses --      1.3244                 2.3566                 2.8395
 Frc consts  --      0.0402                 0.0917                 0.1283
 IR Inten    --      0.4022                 0.0648                 1.0312

                     10                     11                     12
                      A                      A                      A
 Frequencies --    307.8671               319.1646               349.2154
 Red. masses --      2.9773                 3.6297                 1.7247
 Frc consts  --      0.1663                 0.2178                 0.1239
 IR Inten    --      2.4210                 0.8305                10.8884

                     13                     14                     15
                      A                      A                      A
 Frequencies --    372.8905               398.2691               435.0900
 Red. masses --      1.4776                 1.9507                 3.2660
 Frc consts  --      0.1211                 0.1823                 0.3643
 IR Inten    --      8.3200                 2.2819                 0.9994

                     16                     17                     18
                      A                      A                      A
 Frequencies --    458.9815               514.2902               561.2117
 Red. masses --      1.9311                 2.4499                 2.9413
 Frc consts  --      0.2397                 0.3818                 0.5458
 IR Inten    --      1.2928                 1.7899                 3.0315

                     19                     20                     21
                      A                      A                      A
 Frequencies --    665.4085               673.1636               731.7004
 Red. masses --      3.8466                 4.4508                 4.0130
 Frc consts  --      1.0035                 1.1883                 1.2659
 IR Inten    --      0.3013                 6.8831                 2.1718

                     22                     23                     24
                      A                      A                      A
 Frequencies --    755.7255               814.2330               842.8263
 Red. masses --      1.7054                 1.4575                 1.7318
 Frc consts  --      0.5739                 0.5693                 0.7248
 IR Inten    --      8.2090                 2.2649                 6.2355

                     25                     26                     27
                      A                      A                      A
 Frequencies --    860.3777               904.0938               941.6256
 Red. masses --      1.9894                 1.8945                 1.8083
 Frc consts  --      0.8677                 0.9124                 0.9447
 IR Inten    --      4.9100                 2.9791                 7.5713

                     28                     29                     30
                      A                      A                      A
 Frequencies --    961.4775               969.4796               987.6765
 Red. masses --      1.7982                 1.7043                 1.6077
 Frc consts  --      0.9794                 0.9438                 0.9240
 IR Inten    --      2.1859                 0.4865                 1.5481

                     31                     32                     33
                      A                      A                      A
 Frequencies --   1022.9605              1039.3517              1059.2364
 Red. masses --      2.0189                 1.9264                 1.9130
 Frc consts  --      1.2448                 1.2261                 1.2646
 IR Inten    --      2.1212                16.0015                 1.7582

                     34                     35                     36
                      A                      A                      A
 Frequencies --   1077.9996              1107.6957              1150.8411
 Red. masses --      2.5940                 1.6837                 1.7720
 Frc consts  --      1.7761                 1.2172                 1.3828
 IR Inten    --      6.6100                 1.2153                45.3853

                     37                     38                     39
                      A                      A                      A
 Frequencies --   1174.6668              1187.1469              1215.8159
 Red. masses --      1.6347                 1.9007                 1.1392
 Frc consts  --      1.3290                 1.5782                 0.9922
 IR Inten    --     32.8636                 4.0472                 4.5801

                     40                     41                     42
                      A                      A                      A
 Frequencies --   1242.6903              1265.7270              1279.6279
 Red. masses --      1.4124                 1.2104                 1.7266
 Frc consts  --      1.2851                 1.1425                 1.6658
 IR Inten    --     21.5162                 3.7744                15.5913

                     43                     44                     45
                      A                      A                      A
 Frequencies --   1292.3749              1321.4282              1338.6354
 Red. masses --      1.2110                 1.5130                 1.2311
 Frc consts  --      1.1917                 1.5566                 1.2998
 IR Inten    --      9.1115                11.7927                 5.5647

                     46                     47                     48
                      A                      A                      A
 Frequencies --   1344.3272              1359.9890              1386.5917
 Red. masses --      1.2776                 1.2624                 1.3508
 Frc consts  --      1.3604                 1.3757                 1.5301
 IR Inten    --      6.2648                33.4123                 3.0789

                     49                     50                     51
                      A                      A                      A
 Frequencies --   1404.3510              1412.1729              1419.1609
 Red. masses --      1.3620                 1.4134                 1.3178
 Frc consts  --      1.5826                 1.6607                 1.5637
 IR Inten    --     21.8342                35.4907                10.2308

                     52                     53                     54
                      A                      A                      A
 Frequencies --   1437.4660              1449.2955              1493.1379
 Red. masses --      1.2479                 1.3005                 1.1012
 Frc consts  --      1.5193                 1.6094                 1.4465
 IR Inten    --      6.2550                 4.1536                 8.5483

                     55                     56                     57
                      A                      A                      A
 Frequencies --   1505.0509              1507.6543              1511.3486
 Red. masses --      1.0858                 1.0884                 1.0890
 Frc consts  --      1.4491                 1.4576                 1.4656
 IR Inten    --      6.1142                 2.7167                 5.6378

                     58                     59                     60
                      A                      A                      A
 Frequencies --   1520.4455              1528.6162              1529.8322
 Red. masses --      1.0794                 1.0472                 1.0580
 Frc consts  --      1.4702                 1.4417                 1.4589
 IR Inten    --      5.9207                 4.2144                 3.7115

                     61                     62                     63
                      A                      A                      A
 Frequencies --   1536.2993              2618.0108              2923.8798
 Red. masses --      1.1133                 1.0377                 1.0720
 Frc consts  --      1.5482                 4.1906                 5.3996
 IR Inten    --     10.8927                49.6840                49.4795

                     64                     65                     66
                      A                      A                      A
 Frequencies --   2932.2443              3009.7802              3041.3456
 Red. masses --      1.0739                 1.0587                 1.0374
 Frc consts  --      5.4401                 5.6505                 5.6537
 IR Inten    --    124.0453                41.3608                26.5935

                     67                     68                     69
                      A                      A                      A
 Frequencies --   3046.6367              3054.1470              3061.9824
 Red. masses --      1.0985                 1.0782                 1.0670
 Frc consts  --      6.0076                 5.9257                 5.8943
 IR Inten    --     10.5914                 5.1591                38.2276

                     70                     71                     72
                      A                      A                      A
 Frequencies --   3064.6036              3069.8787              3089.7657
 Red. masses --      1.0625                 1.0630                 1.0896
 Frc consts  --      5.8795                 5.9026                 6.1288
 IR Inten    --     34.7207                41.2436                 8.8421

                     73                     74                     75
                      A                      A                      A
 Frequencies --   3103.5401              3107.8852              3111.2857
 Red. masses --      1.1029                 1.0997                 1.0913
 Frc consts  --      6.2588                 6.2585                 6.2242
 IR Inten    --      4.8741                23.2125                33.1931

                     76                     77                     78
                      A                      A                      A
 Frequencies --   3115.7982              3118.1823              3126.6243
 Red. masses --      1.1066                 1.1021                 1.1014
 Frc consts  --      6.3297                 6.3134                 6.3439
 IR Inten    --     23.6007                32.0431                27.1574

 - Thermochemistry -
 -------------------
 Temperature   298.150 Kelvin.  Pressure   1.00000 Atm.
 Atom     1 has atomic number  6 and mass  12.00000

 Molecular mass:   191.08024 amu.
 Principal axes and moments of inertia in atomic units:
                           1         2         3
     Eigenvalues --  1715.151823048.766013531.61352
           X            0.99913  -0.02988   0.02910
           Y            0.03111   0.99860  -0.04277
           Z           -0.02778   0.04364   0.99866
 This molecule is an asymmetric top.
 Rotational symmetry number  1.
 Warning -- assumption of classical behavior for rotation
           may cause significant error
 Rotational temperatures (Kelvin)      0.05050     0.02841     0.02453
 Rotational constants (GHZ):           1.05223     0.59196     0.51102
 Zero-point vibrational energy     646047.8 (Joules/Mol)
                                  154.40913 (Kcal/Mol)
 Warning -- explicit consideration of  18 degrees of freedom as
           vibrations may cause significant error
 Vibrational temperatures:     54.71    82.18   148.66   215.71   231.09
          (Kelvin)            285.58   326.65   369.77   398.46   442.95
                              459.21   502.44   536.51   573.02   626.00
                              660.37   739.95   807.46   957.37   968.53
                             1052.75  1087.32  1171.50  1212.64  1237.89
                             1300.79  1354.79  1383.35  1394.86  1421.05
                             1471.81  1495.40  1524.00  1551.00  1593.73
                             1655.80  1690.08  1708.04  1749.29  1787.95
                             1821.10  1841.10  1859.44  1901.24  1926.00
                             1934.19  1956.72  1995.00  2020.55  2031.80
                             2041.86  2068.19  2085.21  2148.29  2165.43
                             2169.18  2174.49  2187.58  2199.34  2201.09
                             2210.39  3766.73  4206.81  4218.85  4330.40
                             4375.82  4383.43  4394.24  4405.51  4409.28
                             4416.87  4445.48  4465.30  4471.55  4476.45
                             4482.94  4486.37  4498.51

 Zero-point correction=                           0.246067 (Hartree/Particle)
 Thermal correction to Energy=                    0.258587
 Thermal correction to Enthalpy=                  0.259531
 Thermal correction to Gibbs Free Energy=         0.206956
 Sum of electronic and zero-point Energies=          -1166.014386
 Sum of electronic and thermal Energies=             -1166.001866
 Sum of electronic and thermal Enthalpies=           -1166.000922
 Sum of electronic and thermal Free Energies=        -1166.053497

                     E (Thermal)             CV                S
                      KCal/Mol        Cal/Mol-Kelvin    Cal/Mol-Kelvin
 Total                  162.266             47.702            110.655
 Electronic               0.000              0.000              0.000
 Translational            0.889              2.981             41.648
 Rotational               0.889              2.981             31.291
 Vibrational            160.488             41.740             37.716
 Vibration     1          0.594              1.982              5.359
 Vibration     2          0.596              1.975              4.554
 Vibration     3          0.605              1.947              3.391
 Vibration     4          0.618              1.903              2.673
 Vibration     5          0.622              1.891              2.543
 Vibration     6          0.637              1.842              2.147
 Vibration     7          0.651              1.800              1.902
 Vibration     8          0.667              1.751              1.682
 Vibration     9          0.678              1.716              1.552
 Vibration    10          0.698              1.659              1.374
 Vibration    11          0.705              1.637              1.314
 Vibration    12          0.726              1.577              1.170
 Vibration    13          0.744              1.528              1.068
 Vibration    14          0.765              1.474              0.969
 Vibration    15          0.796              1.394              0.842
 Vibration    16          0.817              1.341              0.769
 Vibration    17          0.869              1.218              0.623
 Vibration    18          0.917              1.115              0.521

 Optimization completed.
    -- Stationary point found.
 Normal termination of Gaussian 16 at Tue Dec  8 20:03:28 2020.

 ----------------------------------------------------------------------
 # B3LYP/6-311++G(d,p) empiricaldispersion=gd3bj scf=xqc pop=npa geom=c
 heck
 ----------------------------------------------------------------------

 ---------------------------------------
 CID_131068375_JID_1297_Energie_neutraal
 ---------------------------------------
 Structure from the checkpoint file:  "JID_1297.chk"
 Charge =  0 Multiplicity = 1

 SCF Done:  E(RB3LYP) =  -1166.41983921     A.U. after   13 cycles
 Normal termination of Gaussian 16 at Tue Dec  8 20:06:51 2020.

 ----------------------------------------------------------------------
 # B3LYP/6-311++G(d,p) empiricaldispersion=gd3bj scf=xqc pop=npa geom=c
 heck
 ----------------------------------------------------------------------

 -------------------------------------
 CID_131068375_JID_1297_Energie_kation
 -------------------------------------
 Structure from the checkpoint file:  "JID_1297.chk"
 Charge =  1 Multiplicity = 2

 SCF Done:  E(UB3LYP) =  -1166.13841120     A.U. after   20 cycles
 Normal termination of Gaussian 16 at Tue Dec  8 20:13:54 2020.
 Gaussian 16:  ES64L-G16RevA.03 25-Dec-2016

 ----------------------------------------------------------------------
 # B3LYP/6-311++G(d,p) empiricaldispersion=gd3bj scf=xqc pop=npa geom=c
 heck
 ----------------------------------------------------------------------

 ------------------------------------
 CID_131068375_JID_1297_Energie_anion
 ------------------------------------
 Structure from the checkpoint file:  "JID_1297.chk"
 Charge = -1 Multiplicity = 2

                         Standard orientation:
 ---------------------------------------------------------------------
 Center     Atomic      Atomic             Coordinates (Angstroms)
 Number     Number       Type             X           Y           Z
 ---------------------------------------------------------------------
      1          6           0       -3.088938    1.689560   -0.688072
      2          6           0       -1.838860    0.810423   -0.541830
      3          6           0       -0.870632    1.463947    0.458629
      4          7           0        0.327761    0.681992    0.719192
      5          6           0        0.142604   -0.403150    1.669255
      6          6           0        0.099138   -1.796482    1.030990
      7         16           0       -0.984907   -1.922390   -0.449319
      8          6           0       -2.253423   -0.623669   -0.170522
      9          6           0        1.590864    1.391391    0.815078
     10          6           0        2.765343    0.529405    0.340680
     11         16           0        2.574619   -0.034284   -1.398112
     12          1           0       -3.652582    1.735485    0.252508
     13          1           0       -3.759460    1.298663   -1.460930
     14          1           0       -2.820744    2.715803   -0.964690
     15          1           0       -1.323349    0.757985   -1.508707
     16          1           0       -0.568703    2.432430    0.047402
     17          1           0       -1.418679    1.678398    1.397084
     18          1           0       -0.784748   -0.240811    2.236577
     19          1           0        0.953419   -0.397548    2.411809
     20          1           0       -0.212867   -2.530318    1.782254
     21          1           0        1.092151   -2.082649    0.670416
     22          1           0       -2.634058   -0.680207    0.856127
     23          1           0       -3.076949   -0.936129   -0.821440
     24          1           0        1.533355    2.279858    0.180536
     25          1           0        1.807074    1.732003    1.846820
     26          1           0        3.690859    1.111584    0.380046
     27          1           0        2.899081   -0.338109    0.995479
     28          1           0        1.269906   -0.372143   -1.261984
 ---------------------------------------------------------------------

 SCF Done:  E(UB3LYP) =  -1166.40577552     A.U. after   29 cycles

 The electronic state is 2-A.
 Alpha  occ. eigenvalues --  -88.73615 -88.73467 -14.20688 -10.10365 -10.10232
 Alpha  occ. eigenvalues --  -10.10229 -10.09805 -10.09704 -10.09452 -10.07785
 Alpha  occ. eigenvalues --  -10.06105  -7.82222  -7.82177  -5.78630  -5.78528
 Alpha  occ. eigenvalues --   -5.78245  -5.78200  -5.77593  -5.77592  -0.83544
 Alpha  occ. eigenvalues --   -0.72202  -0.69434  -0.68979  -0.62123  -0.60199
 Alpha  occ. eigenvalues --   -0.57566  -0.54690  -0.50534  -0.46994  -0.46092
 Alpha  occ. eigenvalues --   -0.40342  -0.39452  -0.36958  -0.35514  -0.34294
 Alpha  occ. eigenvalues --   -0.33299  -0.32664  -0.31448  -0.30574  -0.29664
 Alpha  occ. eigenvalues --   -0.29179  -0.27617  -0.26677  -0.25748  -0.24420
 Alpha  occ. eigenvalues --   -0.23643  -0.23048  -0.22430  -0.20347  -0.13855
 Alpha  occ. eigenvalues --   -0.12805  -0.11448   0.04488
 Alpha virt. eigenvalues --    0.06424   0.07272   0.08140   0.08847   0.09102
 Alpha virt. eigenvalues --    0.09268   0.10347   0.10527   0.10977   0.11992
 Alpha virt. eigenvalues --    0.12178   0.12538   0.12950   0.13288   0.13715

  Beta  occ. eigenvalues --  -88.73612 -88.73466 -14.20665 -10.10339 -10.10207
  Beta  occ. eigenvalues --  -10.10198 -10.09793 -10.09671 -10.09432 -10.07778
  Beta  occ. eigenvalues --  -10.06063  -7.82219  -7.82176  -5.78623  -5.78527
  Beta  occ. eigenvalues --   -5.78239  -5.78198  -5.77591  -5.77590  -0.83504
  Beta  occ. eigenvalues --   -0.72169  -0.69395  -0.68944  -0.62072  -0.60155
  Beta  occ. eigenvalues --   -0.57512  -0.54630  -0.50480  -0.46917  -0.46026
  Beta  occ. eigenvalues --   -0.40299  -0.39406  -0.36897  -0.35475  -0.34260
  Beta  occ. eigenvalues --   -0.33252  -0.32611  -0.31404  -0.30520  -0.29625
  Beta  occ. eigenvalues --   -0.29138  -0.27583  -0.26636  -0.25710  -0.24383
  Beta  occ. eigenvalues --   -0.23602  -0.23010  -0.22408  -0.20313  -0.13838
  Beta  occ. eigenvalues --   -0.12763  -0.11342
  Beta virt. eigenvalues --    0.06946   0.07436   0.07963   0.08744   0.09352
  Beta virt. eigenvalues --    0.09465   0.09938   0.10609   0.10819   0.11410
  Beta virt. eigenvalues --    0.12342   0.12654   0.12787   0.13370   0.13603

 Mulliken charges and spin densities:
               1          2
     1  C    1.014364  -1.759138
     2  C   -3.022745   3.926396
     3  C    1.791052  -2.798428
     4  N    0.014163   0.209764
     5  C    0.303837  -0.458871
     6  C   -0.351671  -0.425180
     7  S    0.089249   0.225331
     8  C    0.889844  -1.758490
     9  C    0.059257  -0.250241
    10  C    0.680267  -1.013555
    11  S   -0.103909   0.063936
    12  H   -0.218618   0.365600
    13  H   -0.454057   0.594632
    14  H   -0.351289   0.488942
    15  H    0.063709   0.127471
    16  H    0.126047   0.015714
    17  H   -0.190681   0.372919
    18  H   -0.205124   0.324528
    19  H   -0.725772   0.902980
    20  H   -0.039369   0.241728
    21  H    0.234310  -0.040746
    22  H   -0.143662   0.348014
    23  H    0.033219   0.204755
    24  H   -0.043035   0.101574
    25  H   -0.503207   0.683149
    26  H   -0.164958   0.385163
    27  H    0.050919   0.111422
    28  H    0.167860  -0.189369
 Sum of Mulliken charges =  -1.00000   1.00000

 Dipole moment (field-independent basis, Debye):
    X=              2.4142    Y=             -2.7617    Z=             -2.9270  Tot=              4.6928
 Quadrupole moment (field-independent basis, Debye-Ang):
   XX=           -150.4715   YY=           -126.5428   ZZ=           -132.6984
   XY=              4.3635   XZ=             -4.1681   YZ=             -2.5776

 Summary of Natural Population Analysis:

                                       Natural Population
                Natural  -----------------------------------------------
    Atom  No    Charge         Core      Valence    Rydberg      Total
 -----------------------------------------------------------------------
      C    1   -0.28545      0.99965     2.27945    0.00635     3.28545
      C    2   -0.12257      0.99958     2.11205    0.01094     3.12257
      C    3   -0.07199      0.99957     2.06058    0.01184     3.07199
      N    4   -0.29759      0.99969     2.77877    0.01913     3.79759
      C    5   -0.09232      0.99959     2.07908    0.01365     3.09232
      C    6   -0.24935      0.99958     2.24005    0.00973     3.24935
      S    7    0.08348      4.99962     2.89930    0.01759     7.91652
      C    8   -0.25133      0.99955     2.23983    0.01195     3.25133
      C    9   -0.07963      0.99958     2.06769    0.01235     3.07963
      C   10   -0.24764      0.99958     2.23780    0.01026     3.24764
      S   11   -0.04873      4.99964     3.03347    0.01561     8.04873
      H   12    0.10036      0.00000     0.39807    0.00158     0.39964
      H   13    0.10071      0.00000     0.39805    0.00124     0.39929
      H   14    0.10165      0.00000     0.39713    0.00122     0.39835
      H   15    0.09661      0.00000     0.40109    0.00230     0.40339
      H   16    0.09849      0.00000     0.39996    0.00155     0.40151
      H   17    0.08426      0.00000     0.41398    0.00176     0.41574
      H   18    0.09527      0.00000     0.40261    0.00212     0.40473
      H   19    0.10193      0.00000     0.39557    0.00251     0.39807
      H   20    0.09916      0.00000     0.39920    0.00163     0.40084
      H   21    0.10365      0.00000     0.39503    0.00132     0.39635
      H   22    0.10420      0.00000     0.39429    0.00151     0.39580
      H   23    0.10953      0.00000     0.38928    0.00119     0.39047
      H   24    0.09898      0.00000     0.39956    0.00146     0.40102
      H   25    0.08934      0.00000     0.40842    0.00224     0.41066
      H   26    0.10482      0.00000     0.39393    0.00125     0.39518
      H   27    0.09836      0.00000     0.39998    0.00165     0.40164
      H   28    0.07577      0.00000     0.42044    0.00379     0.42423
 =======================================================================
   * Total *    0.00000     18.99563    32.83465    0.16972    52.00000

 Normal termination of Gaussian 16 at Tue Dec  8 20:24:23 2020.
