 Gaussian 16, Revision A.03,

 -----------------------------------------------------------
 # opt freq B3LYP/6-31G(d) empiricaldispersion=gd3bj scf=xqc
 -----------------------------------------------------------

 ------------------------------
 CID_64137532_JID_4565_neutraal
 ------------------------------
 Symbolic Z-matrix:
 Charge =  0 Multiplicity = 1

 SCF Done:  E(RB3LYP) =  -638.268097056     A.U. after   12 cycles
 SCF Done:  E(RB3LYP) =  -638.272519819     A.U. after   11 cycles
 SCF Done:  E(RB3LYP) =  -638.273179653     A.U. after   10 cycles
 SCF Done:  E(RB3LYP) =  -638.273322307     A.U. after   10 cycles
 SCF Done:  E(RB3LYP) =  -638.273376770     A.U. after    9 cycles
 SCF Done:  E(RB3LYP) =  -638.273394531     A.U. after    9 cycles
 SCF Done:  E(RB3LYP) =  -638.273397251     A.U. after    7 cycles
 SCF Done:  E(RB3LYP) =  -638.273397624     A.U. after    7 cycles
 SCF Done:  E(RB3LYP) =  -638.273397705     A.U. after    6 cycles
 SCF Done:  E(RB3LYP) =  -638.273397719     A.U. after    6 cycles
 SCF Done:  E(RB3LYP) =  -638.273397728     A.U. after    6 cycles
 Optimization completed.
    -- Stationary point found.
 Normal termination of Gaussian 16 at Thu Dec 10 10:04:40 2020.

 --------------------------------------------------------------------
 #N Geom=AllCheck Guess=TCheck SCRF=Check GenChk RB3LYP/6-31G(d) Freq
 --------------------------------------------------------------------

 Structure from the checkpoint file:  "JID_4565.chk"
 ------------------------------
 CID_64137532_JID_4565_neutraal
 ------------------------------
 Charge =  0 Multiplicity = 1

 SCF Done:  E(RB3LYP) =  -638.273397728     A.U. after    1 cycles

  Exact polarizability: 153.234  -3.721 125.837  -0.077  -0.542 109.159
 Approx polarizability: 174.296  -1.762 173.929  -1.255  -0.375 174.091

                      1                      2                      3
                      A                      A                      A
 Frequencies --     35.7140                46.9948                65.2119
 Red. masses --      2.6370                 3.3264                 3.4092
 Frc consts  --      0.0020                 0.0043                 0.0085
 IR Inten    --      0.0597                 0.1636                 0.1077

                      4                      5                      6
                      A                      A                      A
 Frequencies --     88.7695               114.2172               148.1305
 Red. masses --      2.3750                 2.5937                 3.2739
 Frc consts  --      0.0110                 0.0199                 0.0423
 IR Inten    --      0.0470                 0.2192                 0.7981

                      7                      8                      9
                      A                      A                      A
 Frequencies --    175.2330               185.4466               226.5750
 Red. masses --      2.6556                 2.3586                 1.1055
 Frc consts  --      0.0480                 0.0478                 0.0334
 IR Inten    --      5.6501                 1.3432                 0.5198

                     10                     11                     12
                      A                      A                      A
 Frequencies --    231.2685               236.7424               260.7010
 Red. masses --      1.6797                 1.7099                 1.6247
 Frc consts  --      0.0529                 0.0565                 0.0651
 IR Inten    --      0.4327                 0.6690                 0.6435

                     13                     14                     15
                      A                      A                      A
 Frequencies --    276.5972               291.7863               327.0646
 Red. masses --      1.9458                 2.0783                 1.7377
 Frc consts  --      0.0877                 0.1043                 0.1095
 IR Inten    --      1.5439                 4.1679                25.8670

                     16                     17                     18
                      A                      A                      A
 Frequencies --    351.2683               386.8218               404.5271
 Red. masses --      1.7359                 2.3670                 2.6488
 Frc consts  --      0.1262                 0.2087                 0.2554
 IR Inten    --     81.4494                10.4017                 6.0694

                     19                     20                     21
                      A                      A                      A
 Frequencies --    417.1571               421.0755               444.8109
 Red. masses --      2.2448                 2.3756                 2.5568
 Frc consts  --      0.2302                 0.2482                 0.2981
 IR Inten    --      3.6950                 4.2759                 6.9579

                     22                     23                     24
                      A                      A                      A
 Frequencies --    480.5028               507.4462               512.4163
 Red. masses --      2.1795                 2.8329                 2.9281
 Frc consts  --      0.2965                 0.4298                 0.4530
 IR Inten    --      4.5764                 1.5490                13.4742

                     25                     26                     27
                      A                      A                      A
 Frequencies --    565.2552               677.1613               764.6455
 Red. masses --      2.8165                 2.9888                 2.7775
 Frc consts  --      0.5302                 0.8075                 0.9568
 IR Inten    --     13.3164                 2.8053                 1.1899

                     28                     29                     30
                      A                      A                      A
 Frequencies --    791.1261               802.9862               844.0552
 Red. masses --      1.5376                 1.3846                 2.0898
 Frc consts  --      0.5670                 0.5260                 0.8772
 IR Inten    --     33.9055                38.0558                 6.9499

                     31                     32                     33
                      A                      A                      A
 Frequencies --    864.6090               890.2143               909.8781
 Red. masses --      1.7722                 2.8859                 2.0794
 Frc consts  --      0.7805                 1.3475                 1.0143
 IR Inten    --     22.3287                16.8274                 7.3834

                     34                     35                     36
                      A                      A                      A
 Frequencies --    934.6812               937.3053               955.2768
 Red. masses --      1.5641                 1.3672                 1.4508
 Frc consts  --      0.8051                 0.7077                 0.7800
 IR Inten    --      4.9410                 3.4596                 0.6966

                     37                     38                     39
                      A                      A                      A
 Frequencies --    960.0046               977.6642              1009.7345
 Red. masses --      1.9085                 1.8664                 1.8537
 Frc consts  --      1.0363                 1.0511                 1.1135
 IR Inten    --      3.1108                 3.2606                 8.0409

                     40                     41                     42
                      A                      A                      A
 Frequencies --   1021.8273              1030.4536              1074.7681
 Red. masses --      1.7460                 2.3833                 2.1185
 Frc consts  --      1.0741                 1.4910                 1.4418
 IR Inten    --     10.8773                18.4811                 7.6690

                     43                     44                     45
                      A                      A                      A
 Frequencies --   1087.1220              1118.9966              1125.9635
 Red. masses --      1.9662                 2.7052                 2.0219
 Frc consts  --      1.3691                 1.9957                 1.5103
 IR Inten    --     12.5640                48.9654                 0.3578

                     46                     47                     48
                      A                      A                      A
 Frequencies --   1150.8730              1154.2831              1161.0142
 Red. masses --      2.3724                 2.4492                 2.0912
 Frc consts  --      1.8513                 1.9226                 1.6608
 IR Inten    --     56.7802                67.4067                 7.5419

                     49                     50                     51
                      A                      A                      A
 Frequencies --   1168.6178              1196.0825              1210.1331
 Red. masses --      2.3923                 1.8748                 2.0727
 Frc consts  --      1.9249                 1.5802                 1.7884
 IR Inten    --     18.4918                16.1026                45.9190

                     52                     53                     54
                      A                      A                      A
 Frequencies --   1220.6959              1231.3046              1270.2350
 Red. masses --      2.0870                 1.3345                 1.5030
 Frc consts  --      1.8323                 1.1921                 1.4288
 IR Inten    --     19.9676                14.5057                 6.6279

                     55                     56                     57
                      A                      A                      A
 Frequencies --   1290.7465              1299.1186              1313.7196
 Red. masses --      1.3587                 1.2975                 1.3732
 Frc consts  --      1.3337                 1.2902                 1.3964
 IR Inten    --      3.9056                29.1473                36.8855

                     58                     59                     60
                      A                      A                      A
 Frequencies --   1342.0687              1351.0723              1362.7634
 Red. masses --      1.3052                 1.3336                 1.3347
 Frc consts  --      1.3851                 1.4342                 1.4604
 IR Inten    --      2.3446                19.4987                12.4177

                     61                     62                     63
                      A                      A                      A
 Frequencies --   1370.9397              1380.9295              1402.5079
 Red. masses --      1.3738                 1.3740                 1.2852
 Frc consts  --      1.5213                 1.5438                 1.4895
 IR Inten    --      5.4559                 3.1181                 7.3054

                     64                     65                     66
                      A                      A                      A
 Frequencies --   1415.4565              1423.3438              1426.7710
 Red. masses --      1.4271                 1.5191                 1.5996
 Frc consts  --      1.6846                 1.8133                 1.9186
 IR Inten    --     12.7921                 8.2626                22.0849

                     67                     68                     69
                      A                      A                      A
 Frequencies --   1434.4433              1441.7922              1442.5649
 Red. masses --      1.3789                 1.3403                 1.2567
 Frc consts  --      1.6716                 1.6416                 1.5408
 IR Inten    --     15.7444                 4.2003                11.4600

                     70                     71                     72
                      A                      A                      A
 Frequencies --   1447.7752              1494.1312              1502.7781
 Red. masses --      1.3834                 1.0934                 1.1764
 Frc consts  --      1.7084                 1.4381                 1.5653
 IR Inten    --      2.3204                 2.3514                43.2900

                     73                     74                     75
                      A                      A                      A
 Frequencies --   1508.5398              1515.7580              1518.1446
 Red. masses --      1.1015                 1.0506                 1.0539
 Frc consts  --      1.4769                 1.4221                 1.4311
 IR Inten    --      1.8315                 1.7606                 4.5249

                     76                     77                     78
                      A                      A                      A
 Frequencies --   1522.0028              1529.4199              1532.8413
 Red. masses --      1.0633                 1.0919                 1.0483
 Frc consts  --      1.4512                 1.5048                 1.4512
 IR Inten    --      1.1516                 2.9616                 3.2681

                     79                     80                     81
                      A                      A                      A
 Frequencies --   1536.1918              1537.3620              1540.8036
 Red. masses --      1.0782                 1.0895                 1.0709
 Frc consts  --      1.4991                 1.5171                 1.4979
 IR Inten    --      9.2100                 8.4958                 5.9218

                     82                     83                     84
                      A                      A                      A
 Frequencies --   1543.3595              2902.5087              2975.6853
 Red. masses --      1.0714                 1.0729                 1.0822
 Frc consts  --      1.5037                 5.3253                 5.6460
 IR Inten    --     16.9119                75.9539                30.7019

                     85                     86                     87
                      A                      A                      A
 Frequencies --   3022.2563              3023.9087              3030.1561
 Red. masses --      1.0683                 1.0835                 1.0607
 Frc consts  --      5.7493                 5.8372                 5.7379
 IR Inten    --     53.6671                12.4610                18.9441

                     88                     89                     90
                      A                      A                      A
 Frequencies --   3037.8043              3044.6607              3046.5466
 Red. masses --      1.0380                 1.0395                 1.0439
 Frc consts  --      5.6435                 5.6776                 5.7084
 IR Inten    --     19.8335                32.1034                16.3192

                     91                     92                     93
                      A                      A                      A
 Frequencies --   3049.1283              3053.7870              3068.9609
 Red. masses --      1.0558                 1.0848                 1.0701
 Frc consts  --      5.7833                 5.9603                 5.9385
 IR Inten    --     35.6271                15.2109                 8.7275

                     94                     95                     96
                      A                      A                      A
 Frequencies --   3077.9230              3085.6755              3101.2421
 Red. masses --      1.0957                 1.1013                 1.0998
 Frc consts  --      6.1160                 6.1779                 6.2320
 IR Inten    --     45.8776                16.4841                 5.3718

                     97                     98                     99
                      A                      A                      A
 Frequencies --   3109.3618              3110.2930              3112.6797
 Red. masses --      1.0966                 1.0983                 1.1018
 Frc consts  --      6.2466                 6.2601                 6.2897
 IR Inten    --     47.4195                73.2353                52.5844

                    100                    101                    102
                      A                      A                      A
 Frequencies --   3118.4971              3120.6649              3130.5569
 Red. masses --      1.1011                 1.1016                 1.0991
 Frc consts  --      6.3091                 6.3206                 6.3467
 IR Inten    --     46.9416                44.9641                19.1567

                    103                    104                    105
                      A                      A                      A
 Frequencies --   3136.8331              3483.9581              3720.4425
 Red. masses --      1.1023                 1.0727                 1.0658
 Frc consts  --      6.3906                 7.6714                 8.6922
 IR Inten    --     28.1578                 2.5622                 5.6802

 - Thermochemistry -
 -------------------
 Temperature   298.150 Kelvin.  Pressure   1.00000 Atm.
 Atom     1 has atomic number  6 and mass  12.00000

 Molecular mass:   201.17288 amu.
 Principal axes and moments of inertia in atomic units:
                           1         2         3
     Eigenvalues --  1294.796296001.306526767.88105
           X            0.99996  -0.00918   0.00081
           Y            0.00918   0.99996   0.00060
           Z           -0.00082  -0.00060   1.00000
 This molecule is an asymmetric top.
 Rotational symmetry number  1.
 Warning -- assumption of classical behavior for rotation
           may cause significant error
 Rotational temperatures (Kelvin)      0.06689     0.01443     0.01280
 Rotational constants (GHZ):           1.39384     0.30072     0.26666
 Zero-point vibrational energy     889628.8 (Joules/Mol)
                                  212.62639 (Kcal/Mol)
 Warning -- explicit consideration of  25 degrees of freedom as
           vibrations may cause significant error
 Vibrational temperatures:     51.38    67.61    93.83   127.72   164.33
          (Kelvin)            213.13   252.12   266.82   325.99   332.74
                              340.62   375.09   397.96   419.82   470.57
                              505.40   556.55   582.02   600.20   605.83
                              639.98   691.34   730.10   737.25   813.28
                              974.28  1100.15  1138.25  1155.32  1214.41
                             1243.98  1280.82  1309.11  1344.80  1348.57
                             1374.43  1381.23  1406.64  1452.78  1470.18
                             1482.59  1546.35  1564.13  1609.99  1620.01
                             1655.85  1660.76  1670.44  1681.38  1720.90
                             1741.11  1756.31  1771.57  1827.58  1857.10
                             1869.14  1890.15  1930.94  1943.89  1960.71
                             1972.48  1986.85  2017.90  2036.53  2047.87
                             2052.81  2063.84  2074.42  2075.53  2083.03
                             2149.72  2162.16  2170.45  2180.84  2184.27
                             2189.82  2200.49  2205.42  2210.24  2211.92
                             2216.87  2220.55  4176.06  4281.35  4348.35
                             4350.73  4359.72  4370.72  4380.59  4383.30
                             4387.02  4393.72  4415.55  4428.44  4439.60
                             4462.00  4473.68  4475.02  4478.45  4486.82
                             4489.94  4504.17  4513.20  5012.64  5352.89

 Zero-point correction=                           0.338842 (Hartree/Particle)
 Thermal correction to Energy=                    0.354816
 Thermal correction to Enthalpy=                  0.355760
 Thermal correction to Gibbs Free Energy=         0.295729
 Sum of electronic and zero-point Energies=           -637.934556
 Sum of electronic and thermal Energies=              -637.918582
 Sum of electronic and thermal Enthalpies=            -637.917637
 Sum of electronic and thermal Free Energies=         -637.977669

                     E (Thermal)             CV                S
                      KCal/Mol        Cal/Mol-Kelvin    Cal/Mol-Kelvin
 Total                  222.650             61.086            126.347
 Electronic               0.000              0.000              0.000
 Translational            0.889              2.981             41.802
 Rotational               0.889              2.981             32.331
 Vibrational            220.873             55.124             52.215
 Vibration     1          0.594              1.982              5.484
 Vibration     2          0.595              1.979              4.940
 Vibration     3          0.597              1.971              4.293
 Vibration     4          0.602              1.957              3.687
 Vibration     5          0.607              1.938              3.196
 Vibration     6          0.618              1.905              2.696
 Vibration     7          0.627              1.873              2.379
 Vibration     8          0.632              1.860              2.273
 Vibration     9          0.650              1.801              1.906
 Vibration    10          0.653              1.793              1.869
 Vibration    11          0.656              1.784              1.827
 Vibration    12          0.669              1.745              1.657
 Vibration    13          0.678              1.717              1.555
 Vibration    14          0.687              1.689              1.464
 Vibration    15          0.711              1.621              1.275
 Vibration    16          0.728              1.573              1.160
 Vibration    17          0.755              1.498              1.012
 Vibration    18          0.770              1.460              0.946
 Vibration    19          0.780              1.433              0.902
 Vibration    20          0.784              1.424              0.888
 Vibration    21          0.804              1.372              0.812
 Vibration    22          0.837              1.293              0.709
 Vibration    23          0.863              1.233              0.640
 Vibration    24          0.868              1.222              0.628
 Vibration    25          0.921              1.106              0.513

 Optimization completed.
    -- Stationary point found.
 Normal termination of Gaussian 16 at Thu Dec 10 10:14:58 2020.

 ----------------------------------------------------------------------
 # B3LYP/6-311++G(d,p) empiricaldispersion=gd3bj scf=xqc pop=npa geom=c
 heck
 ----------------------------------------------------------------------

 --------------------------------------
 CID_64137532_JID_4565_Energie_neutraal
 --------------------------------------
 Structure from the checkpoint file:  "JID_4565.chk"
 Charge =  0 Multiplicity = 1

 SCF Done:  E(RB3LYP) =  -638.467342261     A.U. after   13 cycles
 Normal termination of Gaussian 16 at Thu Dec 10 10:19:18 2020.

 ----------------------------------------------------------------------
 # B3LYP/6-311++G(d,p) empiricaldispersion=gd3bj scf=xqc pop=npa geom=c
 heck
 ----------------------------------------------------------------------

 ------------------------------------
 CID_64137532_JID_4565_Energie_kation
 ------------------------------------
 Structure from the checkpoint file:  "JID_4565.chk"
 Charge =  1 Multiplicity = 2

 SCF Done:  E(UB3LYP) =  -638.168538066     A.U. after   22 cycles
 Normal termination of Gaussian 16 at Thu Dec 10 10:30:59 2020.
 Gaussian 16:  ES64L-G16RevA.03 25-Dec-2016

 ----------------------------------------------------------------------
 # B3LYP/6-311++G(d,p) empiricaldispersion=gd3bj scf=xqc pop=npa geom=c
 heck
 ----------------------------------------------------------------------

 -----------------------------------
 CID_64137532_JID_4565_Energie_anion
 -----------------------------------
 Structure from the checkpoint file:  "JID_4565.chk"
 Charge = -1 Multiplicity = 2

                         Standard orientation:
 ---------------------------------------------------------------------
 Center     Atomic      Atomic             Coordinates (Angstroms)
 Number     Number       Type             X           Y           Z
 ---------------------------------------------------------------------
      1          6           0        4.112289   -2.029738    0.092840
      2          6           0        3.896279   -0.601513   -0.413341
      3          6           0        2.625363    0.056877    0.116354
      4          6           0        1.336084   -0.626262   -0.355055
      5          6           0        0.083906    0.139176    0.101444
      6          6           0        0.221969    1.615563   -0.283653
      7          6           0        1.564332    2.172704    0.181848
      8          8           0        2.652763    1.410364   -0.330475
      9          6           0       -1.188142   -0.496535   -0.476158
     10          7           0       -2.364668    0.223869   -0.024123
     11          6           0       -3.657886   -0.318529   -0.446462
     12          6           0       -3.979071   -1.713444    0.118559
     13          6           0       -4.749509    0.686929   -0.074078
     14          8           0       -0.007452    0.118845    1.543544
     15          1           0        4.108212   -2.066791    1.189299
     16          1           0        5.076555   -2.421018   -0.247961
     17          1           0        3.335750   -2.714070   -0.266628
     18          1           0        4.739710    0.032627   -0.115985
     19          1           0        3.865647   -0.585691   -1.510531
     20          1           0        2.641997    0.044927    1.219861
     21          1           0        1.290127   -1.658446    0.019744
     22          1           0        1.347598   -0.681648   -1.451392
     23          1           0        0.152043    1.697272   -1.374661
     24          1           0       -0.609620    2.181504    0.144675
     25          1           0        1.601741    2.188884    1.281248
     26          1           0        1.713760    3.192570   -0.184710
     27          1           0       -1.151244   -0.460809   -1.572968
     28          1           0       -1.179277   -1.570804   -0.198098
     29          1           0       -2.325215    0.291635    0.992488
     30          1           0       -3.617080   -0.393139   -1.542755
     31          1           0       -4.034037   -1.677399    1.214647
     32          1           0       -4.944329   -2.076697   -0.252886
     33          1           0       -3.218492   -2.451171   -0.158022
     34          1           0       -4.526584    1.667996   -0.503321
     35          1           0       -5.731578    0.356345   -0.429744
     36          1           0       -4.811157    0.800049    1.016430
     37          1           0        0.071984   -0.808253    1.821796
 ---------------------------------------------------------------------

 SCF Done:  E(UB3LYP) =  -638.455182855     A.U. after   27 cycles

 The electronic state is 2-A.
 Alpha  occ. eigenvalues --  -19.02441 -19.02149 -14.19065 -10.13001 -10.12020
 Alpha  occ. eigenvalues --  -10.11681 -10.10107 -10.08874 -10.07079 -10.06791
 Alpha  occ. eigenvalues --  -10.06593 -10.06445 -10.06296 -10.05607  -0.94179
 Alpha  occ. eigenvalues --   -0.92367  -0.80695  -0.70590  -0.69838  -0.66411
 Alpha  occ. eigenvalues --   -0.63964  -0.58996  -0.57991  -0.55896  -0.52502
 Alpha  occ. eigenvalues --   -0.48801  -0.48238  -0.46849  -0.40339  -0.39537
 Alpha  occ. eigenvalues --   -0.38936  -0.37002  -0.36552  -0.35820  -0.35084
 Alpha  occ. eigenvalues --   -0.34100  -0.33083  -0.32116  -0.31489  -0.30518
 Alpha  occ. eigenvalues --   -0.29067  -0.28895  -0.27613  -0.27178  -0.26766
 Alpha  occ. eigenvalues --   -0.26605  -0.25638  -0.24980  -0.24551  -0.24006
 Alpha  occ. eigenvalues --   -0.23709  -0.21740  -0.20889  -0.18682  -0.15618
 Alpha  occ. eigenvalues --   -0.12371   0.04325
 Alpha virt. eigenvalues --    0.06269   0.07315   0.07649   0.07695   0.08748
 Alpha virt. eigenvalues --    0.08940   0.09604   0.10229   0.10406   0.10701
 Alpha virt. eigenvalues --    0.10957   0.11506   0.12360   0.12454   0.12786

  Beta  occ. eigenvalues --  -19.02436 -19.02109 -14.19057 -10.12999 -10.12013
  Beta  occ. eigenvalues --  -10.11678 -10.10097 -10.08850 -10.07071 -10.06766
  Beta  occ. eigenvalues --  -10.06583 -10.06410 -10.06278 -10.05571  -0.94162
  Beta  occ. eigenvalues --   -0.92288  -0.80672  -0.70558  -0.69812  -0.66382
  Beta  occ. eigenvalues --   -0.63932  -0.58939  -0.57952  -0.55850  -0.52451
  Beta  occ. eigenvalues --   -0.48750  -0.48189  -0.46794  -0.40299  -0.39507
  Beta  occ. eigenvalues --   -0.38914  -0.36957  -0.36517  -0.35794  -0.35046
  Beta  occ. eigenvalues --   -0.34070  -0.33051  -0.32080  -0.31457  -0.30474
  Beta  occ. eigenvalues --   -0.29035  -0.28862  -0.27578  -0.27144  -0.26730
  Beta  occ. eigenvalues --   -0.26578  -0.25606  -0.24945  -0.24520  -0.23971
  Beta  occ. eigenvalues --   -0.23674  -0.21702  -0.20870  -0.18645  -0.15586
  Beta  occ. eigenvalues --   -0.12353
  Beta virt. eigenvalues --    0.06489   0.06920   0.07736   0.08016   0.08368
  Beta virt. eigenvalues --    0.09004   0.09204   0.09848   0.10505   0.10733
  Beta virt. eigenvalues --    0.10964   0.11426   0.11671   0.12531   0.12602

 Mulliken charges and spin densities:
               1          2
     1  C    1.096290  -1.704814
     2  C   -1.339904   1.208791
     3  C    0.063389  -0.327076
     4  C   -1.803452   0.967898
     5  C    2.423343  -1.731973
     6  C    0.386547  -0.586071
     7  C   -0.156050  -0.148981
     8  O   -0.088699   0.006788
     9  C   -1.002120  -0.051256
    10  N    0.260868  -0.055919
    11  C   -0.990051   1.034824
    12  C    1.265940  -1.743153
    13  C   -0.113897  -0.429795
    14  O   -0.173318   0.021103
    15  H   -0.276294   0.409931
    16  H   -0.196377   0.339558
    17  H   -0.449954   0.604243
    18  H    0.006260   0.154059
    19  H    0.134232   0.000873
    20  H    0.232837  -0.048217
    21  H    0.185030  -0.022151
    22  H   -0.047425   0.221858
    23  H    0.077226   0.099547
    24  H    0.157112  -0.008457
    25  H    0.091457   0.058854
    26  H    0.118843   0.058569
    27  H   -0.249278   0.414313
    28  H    0.262878  -0.094059
    29  H    0.459001  -0.193753
    30  H    0.035064   0.079806
    31  H   -0.170900   0.304822
    32  H   -0.133054   0.275913
    33  H   -0.538010   0.680403
    34  H    0.002924   0.148585
    35  H   -0.129301   0.261147
    36  H   -0.041539   0.169992
    37  H   -0.359617   0.623798
 Sum of Mulliken charges =  -1.00000   1.00000

 Dipole moment (field-independent basis, Debye):
    X=              1.2098    Y=              6.0588    Z=             -1.6825  Tot=              6.4034
 Quadrupole moment (field-independent basis, Debye-Ang):
   XX=           -175.2765   YY=           -138.0224   ZZ=           -121.6598
   XY=              2.1331   XZ=             -1.8330   YZ=              4.6882

 Summary of Natural Population Analysis:

                                       Natural Population
                Natural  -----------------------------------------------
    Atom  No    Charge         Core      Valence    Rydberg      Total
 -----------------------------------------------------------------------
      C    1   -0.28698      0.99967     2.28252    0.00479     3.28698
      C    2   -0.19361      0.99961     2.18429    0.00971     3.19361
      C    3    0.06664      0.99953     1.91842    0.01541     2.93336
      C    4   -0.21673      0.99955     2.20615    0.01102     3.21673
      C    5    0.13245      0.99951     1.85126    0.01678     2.86755
      C    6   -0.21017      0.99957     2.20171    0.00889     3.21017
      C    7   -0.00856      0.99958     1.99750    0.01148     3.00856
      O    8   -0.30559      0.99988     3.29760    0.00811     4.30559
      C    9   -0.09232      0.99955     2.08085    0.01192     3.09232
      N   10   -0.34581      0.99973     2.83503    0.01106     3.84581
      C   11   -0.01043      0.99963     1.99912    0.01169     3.01043
      C   12   -0.29523      0.99965     2.28992    0.00566     3.29523
      C   13   -0.28361      0.99965     2.27886    0.00511     3.28361
      O   14   -0.38613      0.99989     3.37952    0.00671     4.38613
      H   15    0.09846      0.00000     0.40026    0.00128     0.40154
      H   16    0.09844      0.00000     0.40070    0.00087     0.40156
      H   17    0.10013      0.00000     0.39848    0.00139     0.39987
      H   18    0.09852      0.00000     0.40018    0.00131     0.40148
      H   19    0.09527      0.00000     0.40346    0.00127     0.40473
      H   20    0.08267      0.00000     0.41563    0.00170     0.41733
      H   21    0.10760      0.00000     0.39019    0.00221     0.39240
      H   22    0.10295      0.00000     0.39559    0.00146     0.39705
      H   23    0.10050      0.00000     0.39848    0.00102     0.39950
      H   24    0.11295      0.00000     0.38589    0.00117     0.38705
      H   25    0.08364      0.00000     0.41497    0.00139     0.41636
      H   26    0.08672      0.00000     0.41227    0.00101     0.41328
      H   27    0.09353      0.00000     0.40488    0.00158     0.40647
      H   28    0.08503      0.00000     0.41247    0.00250     0.41497
      H   29    0.17739      0.00000     0.31938    0.00323     0.32261
      H   30    0.08591      0.00000     0.41227    0.00182     0.41409
      H   31    0.09653      0.00000     0.40215    0.00132     0.40347
      H   32    0.09847      0.00000     0.40039    0.00114     0.40153
      H   33    0.10288      0.00000     0.39568    0.00143     0.39712
      H   34    0.10177      0.00000     0.39710    0.00113     0.39823
      H   35    0.09752      0.00000     0.40161    0.00087     0.40248
      H   36    0.09487      0.00000     0.40417    0.00096     0.40513
      H   37    0.23434      0.00000     0.26015    0.00551     0.26566
 =======================================================================
   * Total *   -0.00000     13.99499    41.82910    0.17590    56.00000

 Normal termination of Gaussian 16 at Thu Dec 10 10:48:57 2020.
