 Gaussian 16, Revision A.03,

 -----------------------------------------------------------
 # opt freq B3LYP/6-31G(d) empiricaldispersion=gd3bj scf=xqc
 -----------------------------------------------------------

 -----------------------------
 CID_65984341_JID_641_neutraal
 -----------------------------
 Symbolic Z-matrix:
 Charge =  0 Multiplicity = 1

 SCF Done:  E(RB3LYP) =  -443.797865976     A.U. after   13 cycles
 SCF Done:  E(RB3LYP) =  -443.804663923     A.U. after   11 cycles
 SCF Done:  E(RB3LYP) =  -443.805330551     A.U. after   10 cycles
 SCF Done:  E(RB3LYP) =  -443.805502670     A.U. after   10 cycles
 SCF Done:  E(RB3LYP) =  -443.805531565     A.U. after    9 cycles
 SCF Done:  E(RB3LYP) =  -443.805536708     A.U. after    8 cycles
 SCF Done:  E(RB3LYP) =  -443.805537529     A.U. after    7 cycles
 SCF Done:  E(RB3LYP) =  -443.805537629     A.U. after    7 cycles
 Optimization completed.
    -- Stationary point found.
 Normal termination of Gaussian 16 at Tue Dec  8 12:24:53 2020.

 --------------------------------------------------------------------
 #N Geom=AllCheck Guess=TCheck SCRF=Check GenChk RB3LYP/6-31G(d) Freq
 --------------------------------------------------------------------

 Structure from the checkpoint file:  "JID_641.chk"
 -----------------------------
 CID_65984341_JID_641_neutraal
 -----------------------------
 Charge =  0 Multiplicity = 1

 SCF Done:  E(RB3LYP) =  -443.805537629     A.U. after    1 cycles

  Exact polarizability: 104.447   1.081  80.873   0.638  -2.754  84.243
 Approx polarizability: 127.689   0.635 116.580  -1.047  -3.412 125.441

                      1                      2                      3
                      A                      A                      A
 Frequencies --     44.1456                63.5232                91.0332
 Red. masses --      4.6794                 2.3413                 2.6091
 Frc consts  --      0.0054                 0.0056                 0.0127
 IR Inten    --      0.2841                 0.0779                 3.6810

                      4                      5                      6
                      A                      A                      A
 Frequencies --    116.5938               178.9822               221.6531
 Red. masses --      3.0192                 2.9072                 2.1870
 Frc consts  --      0.0242                 0.0549                 0.0633
 IR Inten    --      0.7870                 1.4457                 2.7256

                      7                      8                      9
                      A                      A                      A
 Frequencies --    289.7591               306.4621               329.0692
 Red. masses --      2.9144                 2.6772                 1.3274
 Frc consts  --      0.1442                 0.1481                 0.0847
 IR Inten    --      5.6474                10.8736                97.7242

                     10                     11                     12
                      A                      A                      A
 Frequencies --    363.0901               411.2345               449.2127
 Red. masses --      2.1627                 2.1058                 2.2034
 Frc consts  --      0.1680                 0.2098                 0.2620
 IR Inten    --      4.4965                 2.3573                 2.1035

                     13                     14                     15
                      A                      A                      A
 Frequencies --    488.8341               674.1271               780.9129
 Red. masses --      3.3185                 3.2326                 1.3399
 Frc consts  --      0.4672                 0.8655                 0.4814
 IR Inten    --     16.8989                 4.3121                 0.3549

                     16                     17                     18
                      A                      A                      A
 Frequencies --    799.4955               816.6739               846.2294
 Red. masses --      1.7385                 1.6391                 1.7134
 Frc consts  --      0.6547                 0.6441                 0.7229
 IR Inten    --      1.3365                 6.1481                12.5213

                     19                     20                     21
                      A                      A                      A
 Frequencies --    899.9217               908.5667               918.8511
 Red. masses --      1.5840                 1.5067                 1.3159
 Frc consts  --      0.7558                 0.7328                 0.6546
 IR Inten    --      1.7529                 5.1367                 1.4994

                     22                     23                     24
                      A                      A                      A
 Frequencies --    954.0342               971.7521               995.3845
 Red. masses --      2.7052                 2.7346                 2.7605
 Frc consts  --      1.4507                 1.5214                 1.6115
 IR Inten    --     15.1075                 3.8047                11.9600

                     25                     26                     27
                      A                      A                      A
 Frequencies --   1036.5937              1059.8835              1062.8882
 Red. masses --      2.7390                 2.2131                 1.8284
 Frc consts  --      1.7340                 1.4648                 1.2170
 IR Inten    --      1.3474                29.3618                78.0060

                     28                     29                     30
                      A                      A                      A
 Frequencies --   1084.4120              1095.0756              1110.1277
 Red. masses --      1.3907                 1.9864                 2.4637
 Frc consts  --      0.9636                 1.4035                 1.7889
 IR Inten    --      2.3774                14.1499                38.8693

                     31                     32                     33
                      A                      A                      A
 Frequencies --   1143.3216              1148.6407              1155.9364
 Red. masses --      1.1259                 1.1705                 1.7338
 Frc consts  --      0.8672                 0.9099                 1.3650
 IR Inten    --      4.6125                 4.0296                15.2420

                     34                     35                     36
                      A                      A                      A
 Frequencies --   1191.1228              1204.7340              1211.0239
 Red. masses --      1.3245                 2.0488                 1.4240
 Frc consts  --      1.1072                 1.7520                 1.2305
 IR Inten    --      2.7011                 6.0098                 2.2119

                     37                     38                     39
                      A                      A                      A
 Frequencies --   1232.2635              1239.9879              1253.5114
 Red. masses --      2.4741                 2.0021                 1.3508
 Frc consts  --      2.2135                 1.8137                 1.2505
 IR Inten    --     36.0969                 1.6127                11.5564

                     40                     41                     42
                      A                      A                      A
 Frequencies --   1285.5966              1296.9270              1340.1583
 Red. masses --      1.3840                 1.3372                 1.5077
 Frc consts  --      1.3477                 1.3252                 1.5954
 IR Inten    --      6.4395                 6.5512                13.0754

                     43                     44                     45
                      A                      A                      A
 Frequencies --   1358.6131              1376.1507              1384.9044
 Red. masses --      1.4613                 1.3470                 1.3788
 Frc consts  --      1.5892                 1.5030                 1.5581
 IR Inten    --      0.7255                21.4666                 3.1643

                     46                     47                     48
                      A                      A                      A
 Frequencies --   1407.5293              1437.0192              1444.4973
 Red. masses --      1.2719                 1.5005                 1.4303
 Frc consts  --      1.4847                 1.8256                 1.7584
 IR Inten    --     18.8137                23.5201                49.0198

                     49                     50                     51
                      A                      A                      A
 Frequencies --   1493.4077              1500.7260              1532.1613
 Red. masses --      1.0883                 1.0915                 1.0866
 Frc consts  --      1.4300                 1.4484                 1.5029
 IR Inten    --      3.2738                 1.2514                 2.2410

                     52                     53                     54
                      A                      A                      A
 Frequencies --   1536.3652              1537.5166              1560.6067
 Red. masses --      1.3470                 1.0846                 1.1156
 Frc consts  --      1.8733                 1.5106                 1.6008
 IR Inten    --      0.7854                 0.7802                 7.2535

                     55                     56                     57
                      A                      A                      A
 Frequencies --   2947.7143              2982.0526              3008.3766
 Red. masses --      1.0701                 1.0715                 1.0632
 Frc consts  --      5.4782                 5.6139                 5.6691
 IR Inten    --     62.5064                42.9582                68.5102

                     58                     59                     60
                      A                      A                      A
 Frequencies --   3020.6584              3060.2789              3061.4413
 Red. masses --      1.0617                 1.1032                 1.0909
 Frc consts  --      5.7075                 6.0874                 6.0242
 IR Inten    --     36.3841                25.2412                58.3910

                     61                     62                     63
                      A                      A                      A
 Frequencies --   3070.3234              3090.4534              3108.1550
 Red. masses --      1.0989                 1.0895                 1.0902
 Frc consts  --      6.1035                 6.1306                 6.2053
 IR Inten    --     45.1441                26.0254                59.2867

                     64                     65                     66
                      A                      A                      A
 Frequencies --   3139.0160              3143.2538              3151.2505
 Red. masses --      1.0514                 1.0583                 1.0887
 Frc consts  --      6.1037                 6.1605                 6.3697
 IR Inten    --     20.9417                21.3548                13.0323

                     67                     68                     69
                      A                      A                      A
 Frequencies --   3213.1257              3227.6540              3735.6628
 Red. masses --      1.1189                 1.1156                 1.0660
 Frc consts  --      6.8058                 6.8477                 8.7650
 IR Inten    --      0.5523                25.9761                 6.7264

 - Thermochemistry -
 -------------------
 Temperature   298.150 Kelvin.  Pressure   1.00000 Atm.
 Atom     1 has atomic number  6 and mass  12.00000

 Molecular mass:   141.11536 amu.
 Principal axes and moments of inertia in atomic units:
                           1         2         3
     Eigenvalues --   654.556042851.719063022.78038
           X            0.99998   0.00557   0.00188
           Y           -0.00550   0.99924  -0.03872
           Z           -0.00210   0.03871   0.99925
 This molecule is an asymmetric top.
 Rotational symmetry number  1.
 Warning -- assumption of classical behavior for rotation
           may cause significant error
 Rotational temperatures (Kelvin)      0.13232     0.03037     0.02865
 Rotational constants (GHZ):           2.75720     0.63286     0.59705
 Zero-point vibrational energy     589762.9 (Joules/Mol)
                                  140.95672 (Kcal/Mol)
 Warning -- explicit consideration of  13 degrees of freedom as
           vibrations may cause significant error
 Vibrational temperatures:     63.52    91.40   130.98   167.75   257.52
          (Kelvin)            318.91   416.90   440.93   473.46   522.41
                              591.67   646.32   703.32   969.92  1123.56
                             1150.30  1175.01  1217.54  1294.79  1307.22
                             1322.02  1372.64  1398.13  1432.14  1491.43
                             1524.94  1529.26  1560.23  1575.57  1597.23
                             1644.98  1652.64  1663.13  1713.76  1733.34
                             1742.39  1772.95  1784.07  1803.52  1849.69
                             1865.99  1928.19  1954.74  1979.97  1992.57
                             2025.12  2067.55  2078.31  2148.68  2159.21
                             2204.44  2210.49  2212.14  2245.36  4241.10
                             4290.51  4328.38  4346.05  4403.06  4404.73
                             4417.51  4446.47  4471.94  4516.34  4522.44
                             4533.95  4622.97  4643.87  5374.79

 Zero-point correction=                           0.224629 (Hartree/Particle)
 Thermal correction to Energy=                    0.235194
 Thermal correction to Enthalpy=                  0.236139
 Thermal correction to Gibbs Free Energy=         0.187731
 Sum of electronic and zero-point Energies=           -443.580909
 Sum of electronic and thermal Energies=              -443.570343
 Sum of electronic and thermal Enthalpies=            -443.569399
 Sum of electronic and thermal Free Energies=         -443.617807

                     E (Thermal)             CV                S
                      KCal/Mol        Cal/Mol-Kelvin    Cal/Mol-Kelvin
 Total                  147.587             39.352            101.883
 Electronic               0.000              0.000              0.000
 Translational            0.889              2.981             40.745
 Rotational               0.889              2.981             30.113
 Vibrational            145.809             33.391             31.025
 Vibration     1          0.595              1.980              5.064
 Vibration     2          0.597              1.972              4.345
 Vibration     3          0.602              1.956              3.638
 Vibration     4          0.608              1.936              3.156
 Vibration     5          0.629              1.868              2.339
 Vibration     6          0.648              1.808              1.946
 Vibration     7          0.686              1.693              1.475
 Vibration     8          0.697              1.661              1.381
 Vibration     9          0.712              1.617              1.265
 Vibration    10          0.737              1.548              1.109
 Vibration    11          0.775              1.446              0.922
 Vibration    12          0.808              1.363              0.798
 Vibration    13          0.845              1.275              0.687

                           ! Non-Optimized Parameters !
 Normal termination of Gaussian 16 at Tue Dec  8 12:30:43 2020.

 ----------------------------------------------------------------------
 # B3LYP/6-311++G(d,p) empiricaldispersion=gd3bj scf=xqc pop=npa geom=c
 heck
 ----------------------------------------------------------------------

 -------------------------------------
 CID_65984341_JID_641_Energie_neutraal
 -------------------------------------
 Structure from the checkpoint file:  "JID_641.chk"
 Charge =  0 Multiplicity = 1

 SCF Done:  E(RB3LYP) =  -443.939973142     A.U. after   13 cycles
 Normal termination of Gaussian 16 at Tue Dec  8 12:39:58 2020.

 ----------------------------------------------------------------------
 # B3LYP/6-311++G(d,p) empiricaldispersion=gd3bj scf=xqc pop=npa geom=c
 heck
 ----------------------------------------------------------------------

 -----------------------------------
 CID_65984341_JID_641_Energie_kation
 -----------------------------------
 Structure from the checkpoint file:  "JID_641.chk"
 Charge =  1 Multiplicity = 2

 SCF Done:  E(UB3LYP) =  -443.644552358     A.U. after   19 cycles
 Normal termination of Gaussian 16 at Tue Dec  8 12:49:40 2020.
 Gaussian 16:  ES64L-G16RevA.03 25-Dec-2016

 ----------------------------------------------------------------------
 # B3LYP/6-311++G(d,p) empiricaldispersion=gd3bj scf=xqc pop=npa geom=c
 heck
 ----------------------------------------------------------------------

 ----------------------------------
 CID_65984341_JID_641_Energie_anion
 ----------------------------------
 Structure from the checkpoint file:  "JID_641.chk"
 Charge = -1 Multiplicity = 2

                         Standard orientation:
 ---------------------------------------------------------------------
 Center     Atomic      Atomic             Coordinates (Angstroms)
 Number     Number       Type             X           Y           Z
 ---------------------------------------------------------------------
      1          6           0       -2.561433   -1.194760    0.534029
      2          6           0       -3.489948   -0.572564   -0.478159
      3          6           0       -2.012074   -0.274440   -0.529938
      4          6           0       -1.526320    1.117761   -0.158741
      5          7           0       -0.130826    1.246367    0.227000
      6          6           0        0.468172    0.358001    1.242778
      7          6           0        1.796592    0.400448    0.447637
      8          6           0        0.940132    0.931021   -0.733318
      9          6           0        2.544794   -0.903715    0.245185
     10          8           0        3.648543   -0.767967   -0.643400
     11          1           0       -2.353633   -2.258795    0.461108
     12          1           0       -2.600344   -0.819686    1.554056
     13          1           0       -3.918074   -1.208586   -1.247519
     14          1           0       -4.152646    0.221077   -0.140610
     15          1           0       -1.461982   -0.753163   -1.338243
     16          1           0       -1.688718    1.801493   -1.003270
     17          1           0       -2.143353    1.495291    0.669482
     18          1           0        0.463491    0.762666    2.262147
     19          1           0        0.038734   -0.655705    1.260213
     20          1           0        2.479012    1.168104    0.823122
     21          1           0        0.689174    0.122509   -1.444967
     22          1           0        1.309499    1.793609   -1.301878
     23          1           0        2.969508   -1.251362    1.193226
     24          1           0        1.845065   -1.681818   -0.104725
     25          1           0        3.292216   -0.486985   -1.500786
 ---------------------------------------------------------------------

 SCF Done:  E(UB3LYP) =  -443.923269559     A.U. after   33 cycles
 SCF Done:  E(UB3LYP) =  -443.923269559     a.u. after    1 cycles

 The electronic state is 2-A.
 Alpha  occ. eigenvalues --  -19.01634 -14.19621 -10.11018 -10.09041 -10.09027
 Alpha  occ. eigenvalues --  -10.08575 -10.07246 -10.07034 -10.06769 -10.06716
 Alpha  occ. eigenvalues --   -0.91703  -0.83876  -0.75614  -0.67322  -0.59988
 Alpha  occ. eigenvalues --   -0.57494  -0.52423  -0.49857  -0.47320  -0.44322
 Alpha  occ. eigenvalues --   -0.41447  -0.40174  -0.37929  -0.36628  -0.35282
 Alpha  occ. eigenvalues --   -0.34229  -0.32339  -0.29400  -0.28842  -0.26612
 Alpha  occ. eigenvalues --   -0.26350  -0.25309  -0.24195  -0.22204  -0.21459
 Alpha  occ. eigenvalues --   -0.19515  -0.18439  -0.17109  -0.11178   0.04901
 Alpha virt. eigenvalues --    0.07046   0.07582   0.07944   0.09220   0.09601
 Alpha virt. eigenvalues --    0.10065   0.10272   0.11155   0.12414   0.12710
 Alpha virt. eigenvalues --    0.12860   0.13718   0.14209   0.15274   0.15897

  Beta  occ. eigenvalues --  -19.01595 -14.19616 -10.10996 -10.09031 -10.09019
  Beta  occ. eigenvalues --  -10.08533 -10.07242 -10.07018 -10.06744 -10.06694
  Beta  occ. eigenvalues --   -0.91623  -0.83855  -0.75585  -0.67295  -0.59935
  Beta  occ. eigenvalues --   -0.57436  -0.52371  -0.49783  -0.47265  -0.44254
  Beta  occ. eigenvalues --   -0.41382  -0.40128  -0.37867  -0.36578  -0.35241
  Beta  occ. eigenvalues --   -0.34185  -0.32304  -0.29364  -0.28808  -0.26572
  Beta  occ. eigenvalues --   -0.26317  -0.25286  -0.24156  -0.22171  -0.21425
  Beta  occ. eigenvalues --   -0.19480  -0.18408  -0.17066  -0.11155
  Beta virt. eigenvalues --    0.07194   0.08057   0.08265   0.08605   0.09742
  Beta virt. eigenvalues --    0.10006   0.10350   0.10957   0.11616   0.12709
  Beta virt. eigenvalues --    0.13130   0.13283   0.14152   0.14390   0.15728

 Mulliken charges and spin densities:
               1          2
     1  C    0.364310  -0.783572
     2  C    1.768957  -2.231896
     3  C   -1.720637   2.137668
     4  C    0.644690  -1.286932
     5  N   -0.035339   0.108323
     6  C   -0.104622  -0.387437
     7  C   -0.914407   1.215847
     8  C    0.575754  -1.046932
     9  C    1.114437  -1.585731
    10  O   -0.306864   0.060198
    11  H   -0.159966   0.310674
    12  H   -0.018456   0.158601
    13  H   -0.384832   0.539879
    14  H   -0.116998   0.229452
    15  H   -0.472171   0.692352
    16  H    0.087398   0.068634
    17  H   -0.188021   0.349071
    18  H   -0.141663   0.285919
    19  H    0.141747  -0.020491
    20  H    0.152228   0.028446
    21  H   -0.283758   0.412056
    22  H   -0.457819   0.635676
    23  H    0.016748   0.130642
    24  H   -0.375577   0.544532
    25  H   -0.185137   0.435022
 Sum of Mulliken charges =  -1.00000   1.00000

 Dipole moment (field-independent basis, Debye):
    X=             -0.3455    Y=              2.5150    Z=              4.4787  Tot=              5.1481
 Quadrupole moment (field-independent basis, Debye-Ang):
   XX=           -130.2944   YY=           -100.6615   ZZ=            -98.5188
   XY=             -3.7962   XZ=              5.1355   YZ=             -4.1234

 Summary of Natural Population Analysis:

                                       Natural Population
                Natural  -----------------------------------------------
    Atom  No    Charge         Core      Valence    Rydberg      Total
 -----------------------------------------------------------------------
      C    1   -0.20023      0.99962     2.19048    0.01013     3.20023
      C    2   -0.19787      0.99962     2.18856    0.00969     3.19787
      C    3   -0.12991      0.99959     2.11959    0.01073     3.12991
      C    4   -0.08003      0.99959     2.06923    0.01122     3.08003
      N    5   -0.27979      0.99974     2.76643    0.01363     3.77979
      C    6   -0.07554      0.99962     2.06713    0.00879     3.07554
      C    7   -0.12961      0.99958     2.11906    0.01098     3.12961
      C    8   -0.08074      0.99962     2.06788    0.01324     3.08074
      C    9   -0.00775      0.99956     1.99473    0.01346     3.00775
      O   10   -0.36926      0.99990     3.36286    0.00649     4.36926
      H   11    0.10525      0.00000     0.39336    0.00139     0.39475
      H   12    0.09818      0.00000     0.40068    0.00114     0.40182
      H   13    0.10500      0.00000     0.39346    0.00154     0.39500
      H   14    0.09804      0.00000     0.40092    0.00104     0.40196
      H   15    0.10750      0.00000     0.38990    0.00260     0.39250
      H   16    0.09671      0.00000     0.40198    0.00131     0.40329
      H   17    0.09162      0.00000     0.40681    0.00157     0.40838
      H   18    0.08821      0.00000     0.41042    0.00137     0.41179
      H   19    0.08799      0.00000     0.41026    0.00175     0.41201
      H   20    0.09989      0.00000     0.39887    0.00124     0.40011
      H   21    0.08577      0.00000     0.41109    0.00314     0.41423
      H   22    0.09278      0.00000     0.40532    0.00190     0.40722
      H   23    0.08381      0.00000     0.41491    0.00129     0.41619
      H   24    0.07882      0.00000     0.41923    0.00195     0.42118
      H   25    0.23118      0.00000     0.26243    0.00639     0.26882
 =======================================================================
   * Total *    0.00000      9.99644    28.86557    0.13799    39.00000

 Normal termination of Gaussian 16 at Tue Dec  8 13:04:43 2020.
