 Gaussian 16, Revision A.03,

 -----------------------------------------------------------
 # opt freq B3LYP/6-31G(d) empiricaldispersion=gd3bj scf=xqc
 -----------------------------------------------------------

 --------------------------------
 CID_135491143_JID_10659_neutraal
 --------------------------------
 Symbolic Z-matrix:
 Charge =  0 Multiplicity = 1

 SCF Done:  E(RB3LYP) =  -890.398742374     A.U. after   16 cycles
 SCF Done:  E(RB3LYP) =  -890.405463339     A.U. after   13 cycles
 SCF Done:  E(RB3LYP) =  -890.406336178     A.U. after   12 cycles
 SCF Done:  E(RB3LYP) =  -890.406457080     A.U. after   12 cycles
 SCF Done:  E(RB3LYP) =  -890.406488500     A.U. after   11 cycles
 SCF Done:  E(RB3LYP) =  -890.406519480     A.U. after   10 cycles
 SCF Done:  E(RB3LYP) =  -890.406538562     A.U. after   11 cycles
 SCF Done:  E(RB3LYP) =  -890.406544207     A.U. after   10 cycles
 SCF Done:  E(RB3LYP) =  -890.406546862     A.U. after   10 cycles
 SCF Done:  E(RB3LYP) =  -890.406547837     A.U. after    9 cycles
 SCF Done:  E(RB3LYP) =  -890.406547884     A.U. after    7 cycles
 SCF Done:  E(RB3LYP) =  -890.406547908     A.U. after    7 cycles
 SCF Done:  E(RB3LYP) =  -890.406547913     A.U. after    7 cycles
 Optimization completed.
    -- Stationary point found.
 Normal termination of Gaussian 16 at Thu Dec 17 20:11:11 2020.

 --------------------------------------------------------------------
 #N Geom=AllCheck Guess=TCheck SCRF=Check GenChk RB3LYP/6-31G(d) Freq
 --------------------------------------------------------------------

 Structure from the checkpoint file:  "JID_10659.chk"
 --------------------------------
 CID_135491143_JID_10659_neutraal
 --------------------------------
 Charge =  0 Multiplicity = 1

 SCF Done:  E(RB3LYP) =  -890.406547913     A.U. after    1 cycles

  Exact polarizability: 232.059   9.308 174.335  48.472  -4.618 121.298
 Approx polarizability: 336.180  27.235 318.871  93.883 -21.413 207.582

                      1                      2                      3
                      A                      A                      A
 Frequencies --     13.7257                20.0972                34.0249
 Red. masses --      5.8355                 5.9124                 4.3580
 Frc consts  --      0.0006                 0.0014                 0.0030
 IR Inten    --      0.6396                 0.2908                 0.0571

                      4                      5                      6
                      A                      A                      A
 Frequencies --     76.8023                96.3779               106.5920
 Red. masses --      5.6247                 4.2922                 6.0007
 Frc consts  --      0.0195                 0.0235                 0.0402
 IR Inten    --      0.1158                 1.1439                 8.9723

                      7                      8                      9
                      A                      A                      A
 Frequencies --    149.3609               154.2651               244.3662
 Red. masses --      6.5610                 5.5949                 3.7559
 Frc consts  --      0.0862                 0.0784                 0.1321
 IR Inten    --      1.3154                 1.0586                 4.4997

                     10                     11                     12
                      A                      A                      A
 Frequencies --    269.4699               297.2738               334.2050
 Red. masses --      5.6044                 4.7839                 4.0675
 Frc consts  --      0.2398                 0.2491                 0.2677
 IR Inten    --      0.5892                 7.9100                 0.5282

                     13                     14                     15
                      A                      A                      A
 Frequencies --    351.2625               354.3251               363.9603
 Red. masses --      2.2183                 1.5034                 2.1885
 Frc consts  --      0.1613                 0.1112                 0.1708
 IR Inten    --     31.5717                72.4228                23.0956

                     16                     17                     18
                      A                      A                      A
 Frequencies --    399.3304               417.2863               461.7135
 Red. masses --      3.2807                 2.9928                 7.0870
 Frc consts  --      0.3082                 0.3070                 0.8901
 IR Inten    --      1.4276                 0.1768                 2.6998

                     19                     20                     21
                      A                      A                      A
 Frequencies --    478.2964               497.4510               507.9850
 Red. masses --      6.3781                 6.1810                 4.3687
 Frc consts  --      0.8597                 0.9012                 0.6642
 IR Inten    --      8.5782                15.6567                 0.8830

                     22                     23                     24
                      A                      A                      A
 Frequencies --    558.0711               573.0604               586.3968
 Red. masses --      7.3083                 3.0491                 1.4631
 Frc consts  --      1.3410                 0.5900                 0.2964
 IR Inten    --      4.5339                25.0283               231.5204

                     25                     26                     27
                      A                      A                      A
 Frequencies --    606.0057               637.9098               638.5659
 Red. masses --      1.5741                 3.8157                 4.6175
 Frc consts  --      0.3406                 0.9148                 1.1094
 IR Inten    --    126.0529                13.7393                 7.1679

                     28                     29                     30
                      A                      A                      A
 Frequencies --    680.1743               692.2726               716.5439
 Red. masses --      4.9326                 6.2235                 1.8861
 Frc consts  --      1.3445                 1.7573                 0.5706
 IR Inten    --     22.9724                 4.6428                35.2124

                     31                     32                     33
                      A                      A                      A
 Frequencies --    723.9926               737.1600               739.7673
 Red. masses --      4.2723                 4.6278                 4.7692
 Frc consts  --      1.3194                 1.4816                 1.5378
 IR Inten    --      9.8601                25.5517                31.2165

                     34                     35                     36
                      A                      A                      A
 Frequencies --    769.4116               785.3192               816.4603
 Red. masses --      1.8617                 3.4044                 6.0957
 Frc consts  --      0.6493                 1.2370                 2.3941
 IR Inten    --     21.9701                 2.0529                11.9586

                     37                     38                     39
                      A                      A                      A
 Frequencies --    825.8298               861.6297               901.4777
 Red. masses --      9.3715                 1.2497                 1.4555
 Frc consts  --      3.7656                 0.5466                 0.6969
 IR Inten    --      5.5900                 0.1284                 2.3157

                     40                     41                     42
                      A                      A                      A
 Frequencies --    921.0181               949.7890               962.3995
 Red. masses --      1.4479                 2.3486                 2.2901
 Frc consts  --      0.7237                 1.2483                 1.2497
 IR Inten    --      0.9209                 6.9585                 6.4852

                     43                     44                     45
                      A                      A                      A
 Frequencies --    967.1223               994.6775              1004.4905
 Red. masses --      1.3911                 1.2897                 3.6665
 Frc consts  --      0.7666                 0.7518                 2.1797
 IR Inten    --      1.9311                 1.3447                 2.1912

                     46                     47                     48
                      A                      A                      A
 Frequencies --   1022.4498              1026.3355              1061.5657
 Red. masses --      5.9244                 2.2349                 2.2123
 Frc consts  --      3.6490                 1.3870                 1.4689
 IR Inten    --      0.2049                 4.1523                 2.1022

                     49                     50                     51
                      A                      A                      A
 Frequencies --   1069.2763              1113.0870              1117.3364
 Red. masses --      2.0858                 1.7260                 3.4259
 Frc consts  --      1.4051                 1.2599                 2.5200
 IR Inten    --     10.0656                 3.4808                 0.8038

                     52                     53                     54
                      A                      A                      A
 Frequencies --   1166.8909              1189.6718              1193.9677
 Red. masses --      1.5605                 2.0194                 1.1052
 Frc consts  --      1.2519                 1.6840                 0.9283
 IR Inten    --     11.1333                19.8653                 0.2827

                     55                     56                     57
                      A                      A                      A
 Frequencies --   1203.0788              1215.5811              1225.4984
 Red. masses --      3.6814                 1.1475                 1.6633
 Frc consts  --      3.1394                 0.9991                 1.4718
 IR Inten    --     32.5346                 1.4346                12.5596

                     58                     59                     60
                      A                      A                      A
 Frequencies --   1240.1945              1280.7419              1302.3901
 Red. masses --      2.0764                 3.4396                 2.0213
 Frc consts  --      1.8817                 3.3241                 2.0200
 IR Inten    --     13.8359                32.9800                56.0311

                     61                     62                     63
                      A                      A                      A
 Frequencies --   1336.4068              1350.8045              1358.5400
 Red. masses --      4.0454                 2.0165                 2.2811
 Frc consts  --      4.2568                 2.1678                 2.4805
 IR Inten    --     11.0141                22.1389                 7.0292

                     64                     65                     66
                      A                      A                      A
 Frequencies --   1367.0393              1375.7198              1393.9616
 Red. masses --      2.3073                 1.3085                 1.6569
 Frc consts  --      2.5405                 1.4591                 1.8969
 IR Inten    --      0.4047                 1.1986                 6.5481

                     67                     68                     69
                      A                      A                      A
 Frequencies --   1430.5853              1494.1428              1504.2264
 Red. masses --      3.2094                 5.6966                 2.1580
 Frc consts  --      3.8699                 7.4929                 2.8769
 IR Inten    --    127.9557               117.4065                 7.6170

                     70                     71                     72
                      A                      A                      A
 Frequencies --   1509.4702              1522.4195              1547.8934
 Red. masses --      1.1314                 1.1391                 3.3927
 Frc consts  --      1.5189                 1.5555                 4.7893
 IR Inten    --     12.8701                 5.4105                56.1290

                     73                     74                     75
                      A                      A                      A
 Frequencies --   1549.4411              1591.5758              1601.0540
 Red. masses --      2.2913                 6.5091                 8.1341
 Frc consts  --      3.2410                 9.7145                12.2849
 IR Inten    --     18.6938               118.5486               346.5535

                     76                     77                     78
                      A                      A                      A
 Frequencies --   1647.0008              1647.2552              1669.1628
 Red. masses --      2.2591                 3.0520                 5.6137
 Frc consts  --      3.6106                 4.8792                 9.2150
 IR Inten    --     41.9666                34.7163                 3.0175

                     79                     80                     81
                      A                      A                      A
 Frequencies --   1703.9937              1823.3123              3059.4200
 Red. masses --      2.5383                 9.8477                 1.0609
 Frc consts  --      4.3423                19.2890                 5.8506
 IR Inten    --    644.7192               409.9846                20.5481

                     82                     83                     84
                      A                      A                      A
 Frequencies --   3064.9032              3104.8054              3117.0844
 Red. masses --      1.0594                 1.1040                 1.1047
 Frc consts  --      5.8635                 6.2702                 6.3243
 IR Inten    --     32.5536                12.9225                21.3577

                     85                     86                     87
                      A                      A                      A
 Frequencies --   3170.6336              3181.8789              3189.8355
 Red. masses --      1.0871                 1.0861                 1.0914
 Frc consts  --      6.4390                 6.4784                 6.5430
 IR Inten    --     10.2423                 2.5450                17.1241

                     88                     89                     90
                      A                      A                      A
 Frequencies --   3190.6186              3199.1519              3210.9326
 Red. masses --      1.0902                 1.0939                 1.0979
 Frc consts  --      6.5389                 6.5960                 6.6694
 IR Inten    --      8.2102                40.5939                18.6144

                     91                     92                     93
                      A                      A                      A
 Frequencies --   3568.0625              3584.1412              3677.4954
 Red. masses --      1.0480                 1.0768                 1.1006
 Frc consts  --      7.8611                 8.1497                 8.7701
 IR Inten    --     56.3727                47.9565                32.8915

 - Thermochemistry -
 -------------------
 Temperature   298.150 Kelvin.  Pressure   1.00000 Atm.
 Atom     1 has atomic number  6 and mass  12.00000

 Molecular mass:   267.11201 amu.
 Principal axes and moments of inertia in atomic units:
                           1         2         3
     Eigenvalues --  2720.651228877.154889630.78919
           X            0.99995  -0.00244   0.01004
           Y            0.00206   0.99931   0.03719
           Z           -0.01013  -0.03717   0.99926
 This molecule is an asymmetric top.
 Rotational symmetry number  1.
 Warning -- assumption of classical behavior for rotation
           may cause significant error
 Rotational temperatures (Kelvin)      0.03184     0.00976     0.00899
 Rotational constants (GHZ):           0.66335     0.20330     0.18739
 Zero-point vibrational energy     684555.6 (Joules/Mol)
                                  163.61270 (Kcal/Mol)
 Warning -- explicit consideration of  25 degrees of freedom as
           vibrations may cause significant error
 Vibrational temperatures:     19.75    28.92    48.95   110.50   138.67
          (Kelvin)            153.36   214.90   221.95   351.59   387.71
                              427.71   480.85   505.39   509.79   523.66
                              574.55   600.38   664.30   688.16   715.72
                              730.88   802.94   824.51   843.69   871.91
                              917.81   918.75   978.62   996.03  1030.95
                             1041.66  1060.61  1064.36  1107.01  1129.90
                             1174.70  1188.18  1239.69  1297.03  1325.14
                             1366.53  1384.68  1391.47  1431.12  1445.24
                             1471.08  1476.67  1527.36  1538.45  1601.48
                             1607.60  1678.90  1711.67  1717.85  1730.96
                             1748.95  1763.22  1784.36  1842.70  1873.85
                             1922.79  1943.51  1954.64  1966.86  1979.35
                             2005.60  2058.29  2149.74  2164.25  2171.79
                             2190.42  2227.07  2229.30  2289.92  2303.56
                             2369.67  2370.03  2401.55  2451.67  2623.34
                             4401.82  4409.71  4467.12  4484.79  4561.83
                             4578.01  4589.46  4590.59  4602.87  4619.82
                             5133.65  5156.78  5291.10

 Zero-point correction=                           0.260733 (Hartree/Particle)
 Thermal correction to Energy=                    0.276837
 Thermal correction to Enthalpy=                  0.277781
 Thermal correction to Gibbs Free Energy=         0.214339
 Sum of electronic and zero-point Energies=           -890.145814
 Sum of electronic and thermal Energies=              -890.129711
 Sum of electronic and thermal Enthalpies=            -890.128767
 Sum of electronic and thermal Free Energies=         -890.192209

                     E (Thermal)             CV                S
                      KCal/Mol        Cal/Mol-Kelvin    Cal/Mol-Kelvin
 Total                  173.718             63.349            133.525
 Electronic               0.000              0.000              0.000
 Translational            0.889              2.981             42.647
 Rotational               0.889              2.981             33.808
 Vibrational            171.940             57.387             57.070
 Vibration     1          0.593              1.986              7.382
 Vibration     2          0.593              1.986              6.625
 Vibration     3          0.594              1.983              5.580
 Vibration     4          0.599              1.965              3.971
 Vibration     5          0.603              1.952              3.526
 Vibration     6          0.605              1.944              3.330
 Vibration     7          0.618              1.903              2.680
 Vibration     8          0.620              1.898              2.619
 Vibration     9          0.660              1.772              1.771
 Vibration    10          0.674              1.729              1.600
 Vibration    11          0.691              1.679              1.432
 Vibration    12          0.716              1.607              1.240
 Vibration    13          0.728              1.573              1.161
 Vibration    14          0.730              1.566              1.147
 Vibration    15          0.737              1.546              1.105
 Vibration    16          0.765              1.472              0.965
 Vibration    17          0.780              1.433              0.901
 Vibration    18          0.819              1.335              0.761
 Vibration    19          0.835              1.298              0.715
 Vibration    20          0.853              1.256              0.665
 Vibration    21          0.863              1.232              0.638
 Vibration    22          0.914              1.122              0.528
 Vibration    23          0.929              1.090              0.498
 Vibration    24          0.943              1.061              0.474
 Vibration    25          0.965              1.019              0.439

 Optimization completed.
    -- Stationary point found.
 Normal termination of Gaussian 16 at Thu Dec 17 20:27:37 2020.

 ----------------------------------------------------------------------
 # B3LYP/6-311++G(d,p) empiricaldispersion=gd3bj scf=xqc pop=npa geom=c
 heck
 ----------------------------------------------------------------------

 ----------------------------------------
 CID_135491143_JID_10659_Energie_neutraal
 ----------------------------------------
 Structure from the checkpoint file:  "JID_10659.chk"
 Charge =  0 Multiplicity = 1

 SCF Done:  E(RB3LYP) =  -890.649130757     A.U. after   17 cycles
 Normal termination of Gaussian 16 at Thu Dec 17 20:35:18 2020.

 ----------------------------------------------------------------------
 # B3LYP/6-311++G(d,p) empiricaldispersion=gd3bj scf=xqc pop=npa geom=c
 heck
 ----------------------------------------------------------------------

 --------------------------------------
 CID_135491143_JID_10659_Energie_kation
 --------------------------------------
 Structure from the checkpoint file:  "JID_10659.chk"
 Charge =  1 Multiplicity = 2

 SCF Done:  E(UB3LYP) =  -890.350390564     A.U. after   33 cycles
 SCF Done:  E(UB3LYP) =  -890.350390564     a.u. after    1 cycles
 Normal termination of Gaussian 16 at Thu Dec 17 20:56:31 2020.
 Gaussian 16:  ES64L-G16RevA.03 25-Dec-2016

 ----------------------------------------------------------------------
 # B3LYP/6-311++G(d,p) empiricaldispersion=gd3bj scf=xqc pop=npa geom=c
 heck
 ----------------------------------------------------------------------

 -------------------------------------
 CID_135491143_JID_10659_Energie_anion
 -------------------------------------
 Structure from the checkpoint file:  "JID_10659.chk"
 Charge = -1 Multiplicity = 2

                         Standard orientation:
 ---------------------------------------------------------------------
 Center     Atomic      Atomic             Coordinates (Angstroms)
 Number     Number       Type             X           Y           Z
 ---------------------------------------------------------------------
      1          6           0       -3.783724    2.048894    0.908198
      2          6           0       -2.615513    1.572983    1.504520
      3          6           0       -2.219380    0.249960    1.310460
      4          6           0       -2.980940   -0.617874    0.517843
      5          6           0       -4.151627   -0.128989   -0.074174
      6          6           0       -4.552990    1.192681    0.118717
      7          6           0       -2.505506   -2.023998    0.238957
      8          6           0       -1.685822   -2.105692   -1.074173
      9          6           0       -0.475684   -1.213305   -1.008499
     10          6           0       -0.434421    0.021796   -1.694622
     11          7           0        0.591888    0.852074   -1.594010
     12          6           0        1.601450    0.461160   -0.802358
     13          6           0        2.755825    1.364528   -0.647404
     14          8           0        2.922792    2.458088   -1.151087
     15          7           0        3.732507    0.821912    0.215223
     16          6           0        3.626003   -0.399840    0.837613
     17          7           0        2.610101   -1.202161    0.702323
     18          6           0        1.582141   -0.775492   -0.104600
     19          7           0        0.522727   -1.603538   -0.220790
     20          7           0        4.651826   -0.739974    1.685373
     21          1           0       -4.093232    3.079304    1.058021
     22          1           0       -2.010200    2.232667    2.119987
     23          1           0       -1.304953   -0.116241    1.769955
     24          1           0       -4.753871   -0.792458   -0.691398
     25          1           0       -5.466521    1.553703   -0.345952
     26          1           0       -1.870578   -2.379771    1.056908
     27          1           0       -3.358148   -2.708429    0.160376
     28          1           0       -1.359976   -3.139838   -1.229286
     29          1           0       -2.318579   -1.814861   -1.919957
     30          1           0       -1.266561    0.330515   -2.322592
     31          1           0        4.512693    1.439631    0.409697
     32          1           0        5.584198   -0.424542    1.451599
     33          1           0        4.601177   -1.703449    1.991648
 ---------------------------------------------------------------------

 SCF Done:  E(UB3LYP) =  -890.670024108     A.U. after   32 cycles

 The electronic state is 2-A.
 Alpha  occ. eigenvalues --  -18.94049 -14.23791 -14.23606 -14.16808 -14.13720
 Alpha  occ. eigenvalues --  -14.13372 -10.16968 -10.12027 -10.09284 -10.07706
 Alpha  occ. eigenvalues --  -10.07588 -10.07480 -10.07248 -10.07191 -10.06561
 Alpha  occ. eigenvalues --  -10.05885 -10.04687 -10.04572 -10.04363 -10.04268
 Alpha  occ. eigenvalues --   -0.91218  -0.87703  -0.82102  -0.79053  -0.76676
 Alpha  occ. eigenvalues --   -0.75699  -0.73564  -0.68262  -0.64494  -0.63470
 Alpha  occ. eigenvalues --   -0.60453  -0.55302  -0.53690  -0.51118  -0.50498
 Alpha  occ. eigenvalues --   -0.49138  -0.47107  -0.44706  -0.43269  -0.41058
 Alpha  occ. eigenvalues --   -0.40765  -0.38436  -0.36847  -0.35731  -0.35245
 Alpha  occ. eigenvalues --   -0.34272  -0.33527  -0.32430  -0.32171  -0.30234
 Alpha  occ. eigenvalues --   -0.29618  -0.28622  -0.26824  -0.26634  -0.26029
 Alpha  occ. eigenvalues --   -0.25674  -0.24483  -0.24058  -0.22598  -0.22395
 Alpha  occ. eigenvalues --   -0.19173  -0.16686  -0.16501  -0.15530  -0.14808
 Alpha  occ. eigenvalues --   -0.14294  -0.13947  -0.12062  -0.09036  -0.08269
 Alpha  occ. eigenvalues --    0.03723
 Alpha virt. eigenvalues --    0.06115   0.07185   0.08188   0.08661   0.08918
 Alpha virt. eigenvalues --    0.09602   0.09634   0.10293   0.10833   0.10971
 Alpha virt. eigenvalues --    0.11568   0.12494   0.12776   0.13898   0.14087

  Beta  occ. eigenvalues --  -18.93794 -14.23786 -14.23598 -14.16790 -14.13296
  Beta  occ. eigenvalues --  -14.12681 -10.16954 -10.11825 -10.09358 -10.07698
  Beta  occ. eigenvalues --  -10.07589 -10.07483 -10.07239 -10.07184 -10.06558
  Beta  occ. eigenvalues --  -10.05843 -10.04715 -10.04507 -10.04366 -10.04034
  Beta  occ. eigenvalues --   -0.90968  -0.87456  -0.81589  -0.78899  -0.76331
  Beta  occ. eigenvalues --   -0.75655  -0.72717  -0.68153  -0.64474  -0.63248
  Beta  occ. eigenvalues --   -0.60204  -0.54872  -0.53603  -0.51010  -0.50464
  Beta  occ. eigenvalues --   -0.48871  -0.47025  -0.44583  -0.42968  -0.40992
  Beta  occ. eigenvalues --   -0.40638  -0.38324  -0.36747  -0.35686  -0.35120
  Beta  occ. eigenvalues --   -0.34062  -0.33144  -0.32268  -0.32149  -0.30105
  Beta  occ. eigenvalues --   -0.29371  -0.28371  -0.26608  -0.25972  -0.25675
  Beta  occ. eigenvalues --   -0.24983  -0.24273  -0.23802  -0.22518  -0.22213
  Beta  occ. eigenvalues --   -0.18201  -0.16510  -0.15608  -0.15216  -0.14356
  Beta  occ. eigenvalues --   -0.13443  -0.12704  -0.11692  -0.08052  -0.07665
  Beta virt. eigenvalues --    0.06108   0.07120   0.08113   0.08684   0.08889
  Beta virt. eigenvalues --    0.09573   0.09592   0.10362   0.10535   0.10879
  Beta virt. eigenvalues --    0.11229   0.11553   0.12499   0.12743   0.13886

 Mulliken charges and spin densities:
               1          2
     1  C   -0.306562  -0.004237
     2  C   -0.410650  -0.023245
     3  C   -0.331762   0.055004
     4  C    0.842449   0.081548
     5  C   -0.195553  -0.079524
     6  C   -0.244371   0.013378
     7  C   -0.279595  -0.146725
     8  C   -0.284511   0.090358
     9  C    0.402293   0.144488
    10  C   -0.427834  -0.057391
    11  N   -0.089561   0.332240
    12  C   -0.081730   0.039637
    13  C    0.283442   0.113049
    14  O   -0.420063   0.095974
    15  N   -0.356128  -0.007110
    16  C    0.286197   0.008643
    17  N   -0.213721   0.014673
    18  C   -0.948732  -0.016305
    19  N   -0.071187   0.202608
    20  N   -0.298504   0.001797
    21  H    0.130344  -0.000533
    22  H    0.165930  -0.001552
    23  H    0.178082   0.007085
    24  H    0.124943   0.010424
    25  H    0.142410   0.002274
    26  H    0.197590  -0.028607
    27  H    0.017552   0.114659
    28  H    0.120594   0.043722
    29  H    0.135505  -0.008501
    30  H    0.142419   0.000732
    31  H    0.305211   0.000531
    32  H    0.218823  -0.000186
    33  H    0.266681   0.001093
 Sum of Mulliken charges =  -1.00000   1.00000

 Dipole moment (field-independent basis, Debye):
    X=             -0.9369    Y=             -1.9563    Z=              3.9871  Tot=              4.5390
 Quadrupole moment (field-independent basis, Debye-Ang):
   XX=           -125.4318   YY=           -145.5866   ZZ=           -133.4413
   XY=            -10.8143   XZ=             15.4401   YZ=             10.9281

 Summary of Natural Population Analysis:

                                       Natural Population
                Natural  -----------------------------------------------
    Atom  No    Charge         Core      Valence    Rydberg      Total
 -----------------------------------------------------------------------
      C    1   -0.11207      0.99957     2.10349    0.00901     3.11207
      C    2   -0.09505      0.99957     2.08665    0.00883     3.09505
      C    3   -0.09318      0.99951     2.08546    0.00820     3.09318
      C    4   -0.00807      0.99951     1.99723    0.01133     3.00807
      C    5   -0.10385      0.99951     2.09610    0.00823     3.10385
      C    6   -0.10372      0.99957     2.09513    0.00901     3.10372
      C    7   -0.19079      0.99960     2.18186    0.00933     3.19079
      C    8   -0.19688      0.99960     2.18776    0.00953     3.19688
      C    9    0.14341      0.99955     1.84000    0.01704     2.85659
      C   10   -0.01825      0.99955     2.00615    0.01256     3.01825
      N   11   -0.09924      0.99968     2.58828    0.01128     3.59924
      C   12    0.01119      0.99946     1.97336    0.01599     2.98881
      C   13    0.35430      0.99964     1.62374    0.02231     2.64570
      O   14   -0.29198      0.99987     3.28534    0.00677     4.29198
      N   15   -0.32026      0.99964     2.81033    0.01029     3.82026
      C   16    0.30604      0.99965     1.67937    0.01494     2.69396
      N   17   -0.28944      0.99963     2.77557    0.01424     3.78944
      C   18    0.16622      0.99950     1.81817    0.01611     2.83378
      N   19   -0.19278      0.99964     2.67947    0.01367     3.69278
      N   20   -0.40562      0.99971     2.89705    0.00886     3.90562
      H   21    0.09576      0.00000     0.40329    0.00094     0.40424
      H   22    0.09881      0.00000     0.40026    0.00094     0.40119
      H   23    0.10820      0.00000     0.39048    0.00132     0.39180
      H   24    0.09565      0.00000     0.40309    0.00125     0.40435
      H   25    0.09454      0.00000     0.40443    0.00103     0.40546
      H   26    0.10679      0.00000     0.39172    0.00148     0.39321
      H   27    0.09370      0.00000     0.40485    0.00145     0.40630
      H   28    0.10315      0.00000     0.39527    0.00158     0.39685
      H   29    0.09279      0.00000     0.40621    0.00101     0.40721
      H   30    0.08134      0.00000     0.41711    0.00155     0.41866
      H   31    0.19218      0.00000     0.30571    0.00211     0.30782
      H   32    0.18184      0.00000     0.31667    0.00150     0.31816
      H   33    0.19525      0.00000     0.30329    0.00146     0.30475
 =======================================================================
   * Total *   -0.00000     19.99196    49.75290    0.25514    70.00000

 Normal termination of Gaussian 16 at Thu Dec 17 21:16:57 2020.
