 Gaussian 16, Revision A.03,

 -----------------------------------------------------------
 # opt freq B3LYP/6-31G(d) empiricaldispersion=gd3bj scf=xqc
 -----------------------------------------------------------

 -----------------------------
 CID_82719607_JID_150_neutraal
 -----------------------------
 Symbolic Z-matrix:
 Charge =  0 Multiplicity = 1

 SCF Done:  E(RB3LYP) =  -480.993925982     A.U. after   13 cycles
 SCF Done:  E(RB3LYP) =  -480.996474021     A.U. after   11 cycles
 SCF Done:  E(RB3LYP) =  -480.994852332     A.U. after   11 cycles
 SCF Done:  E(RB3LYP) =  -480.996101696     A.U. after   11 cycles
 SCF Done:  E(RB3LYP) =  -480.996838612     A.U. after    8 cycles
 SCF Done:  E(RB3LYP) =  -480.997076529     A.U. after   10 cycles
 SCF Done:  E(RB3LYP) =  -480.997187988     A.U. after   10 cycles
 SCF Done:  E(RB3LYP) =  -480.997225531     A.U. after    9 cycles
 SCF Done:  E(RB3LYP) =  -480.997236808     A.U. after    9 cycles
 SCF Done:  E(RB3LYP) =  -480.997240674     A.U. after    9 cycles
 SCF Done:  E(RB3LYP) =  -480.997243661     A.U. after    9 cycles
 SCF Done:  E(RB3LYP) =  -480.997244432     A.U. after    7 cycles
 SCF Done:  E(RB3LYP) =  -480.997244622     A.U. after    7 cycles
 SCF Done:  E(RB3LYP) =  -480.997244655     A.U. after    7 cycles
 Optimization completed.
    -- Stationary point found.
 Normal termination of Gaussian 16 at Sun Dec 13 19:56:15 2020.

 --------------------------------------------------------------------
 #N Geom=AllCheck Guess=TCheck SCRF=Check GenChk RB3LYP/6-31G(d) Freq
 --------------------------------------------------------------------

 Structure from the checkpoint file:  "JID_150.chk"
 -----------------------------
 CID_82719607_JID_150_neutraal
 -----------------------------
 Charge =  0 Multiplicity = 1

 SCF Done:  E(RB3LYP) =  -480.997244655     A.U. after    1 cycles

  Exact polarizability:  95.502   4.012  82.630  -1.684   0.039  75.969
 Approx polarizability: 119.275   4.012 112.931  -0.102  -2.567 116.650

                      1                      2                      3
                      A                      A                      A
 Frequencies --     63.5670                89.4718               177.5654
 Red. masses --      3.5561                 3.4782                 2.5680
 Frc consts  --      0.0085                 0.0164                 0.0477
 IR Inten    --      1.1825                 1.4224                 5.4423

                      4                      5                      6
                      A                      A                      A
 Frequencies --    206.0050               230.9092               242.2579
 Red. masses --      2.2782                 1.1116                 2.2136
 Frc consts  --      0.0570                 0.0349                 0.0765
 IR Inten    --      1.4236                 1.1279                 1.0781

                      7                      8                      9
                      A                      A                      A
 Frequencies --    287.0880               297.5895               308.2121
 Red. masses --      1.5104                 2.8640                 2.6737
 Frc consts  --      0.0733                 0.1494                 0.1496
 IR Inten    --     16.2733                 5.8674                13.3583

                     10                     11                     12
                      A                      A                      A
 Frequencies --    358.8812               411.3836               455.3664
 Red. masses --      2.4976                 2.8017                 2.2831
 Frc consts  --      0.1895                 0.2794                 0.2789
 IR Inten    --      6.2532                 0.3553                 7.1675

                     13                     14                     15
                      A                      A                      A
 Frequencies --    474.3344               539.7957               620.7352
 Red. masses --      2.9828                 3.3101                 2.4089
 Frc consts  --      0.3954                 0.5683                 0.5469
 IR Inten    --      7.1690                 0.4869                 0.1351

                     16                     17                     18
                      A                      A                      A
 Frequencies --    651.8885               753.2609               796.9795
 Red. masses --      2.7291                 2.3090                 1.1643
 Frc consts  --      0.6833                 0.7719                 0.4357
 IR Inten    --      4.4400                14.0064               147.8058

                     19                     20                     21
                      A                      A                      A
 Frequencies --    857.0569               867.3769               881.7524
 Red. masses --      2.0589                 1.9778                 2.2901
 Frc consts  --      0.8910                 0.8767                 1.0491
 IR Inten    --     17.3319                49.1925                12.4655

                     22                     23                     24
                      A                      A                      A
 Frequencies --    904.1117               946.8500               971.2868
 Red. masses --      1.7670                 2.3285                 1.9312
 Frc consts  --      0.8510                 1.2299                 1.0734
 IR Inten    --     24.2140                 7.1700                 2.1892

                     25                     26                     27
                      A                      A                      A
 Frequencies --   1005.6718              1008.4762              1044.5054
 Red. masses --      1.8136                 1.7386                 2.1346
 Frc consts  --      1.0807                 1.0418                 1.3721
 IR Inten    --      7.2665                 8.5605                41.7991

                     28                     29                     30
                      A                      A                      A
 Frequencies --   1051.7369              1067.5649              1102.2103
 Red. masses --      2.1118                 1.5100                 2.3428
 Frc consts  --      1.3763                 1.0140                 1.6769
 IR Inten    --      7.2980                17.9495                45.9808

                     31                     32                     33
                      A                      A                      A
 Frequencies --   1111.6247              1136.6885              1155.8796
 Red. masses --      2.0642                 2.7796                 2.1739
 Frc consts  --      1.5029                 2.1160                 1.7113
 IR Inten    --     27.5850                30.3421                54.5185

                     34                     35                     36
                      A                      A                      A
 Frequencies --   1196.8710              1201.7447              1254.8286
 Red. masses --      2.0947                 1.6767                 1.3974
 Frc consts  --      1.7680                 1.4267                 1.2964
 IR Inten    --     10.3887                12.7778                11.6326

                     37                     38                     39
                      A                      A                      A
 Frequencies --   1274.3957              1312.6512              1335.0573
 Red. masses --      1.4840                 1.3751                 1.3366
 Frc consts  --      1.4201                 1.3960                 1.4036
 IR Inten    --      5.5984                17.2924                 5.0738

                     40                     41                     42
                      A                      A                      A
 Frequencies --   1353.2433              1378.6421              1389.4927
 Red. masses --      1.3347                 1.2920                 1.4118
 Frc consts  --      1.4400                 1.4468                 1.6060
 IR Inten    --      2.0785                 3.4261                 6.9007

                     43                     44                     45
                      A                      A                      A
 Frequencies --   1398.6268              1408.8207              1433.0590
 Red. masses --      1.3811                 1.2972                 1.2969
 Frc consts  --      1.5917                 1.5169                 1.5692
 IR Inten    --      4.1192                 7.1876                 8.7915

                     46                     47                     48
                      A                      A                      A
 Frequencies --   1440.3145              1491.6064              1505.6969
 Red. masses --      1.3942                 1.1968                 1.1052
 Frc consts  --      1.7041                 1.5689                 1.4762
 IR Inten    --     10.8563                39.7091                19.8091

                     49                     50                     51
                      A                      A                      A
 Frequencies --   1506.8552              1518.4719              1525.4433
 Red. masses --      1.2052                 1.0540                 1.0562
 Frc consts  --      1.6123                 1.4319                 1.4481
 IR Inten    --     33.3236                 0.7332                 1.4293

                     52                     53                     54
                      A                      A                      A
 Frequencies --   1546.8798              1551.2541              1689.4610
 Red. masses --      1.0836                 1.0964                 1.0872
 Frc consts  --      1.5276                 1.5545                 1.8284
 IR Inten    --      5.6429                 0.6538                36.3346

                     55                     56                     57
                      A                      A                      A
 Frequencies --   2992.0115              3001.2963              3026.5087
 Red. masses --      1.0735                 1.0843                 1.0684
 Frc consts  --      5.6622                 5.7547                 5.7662
 IR Inten    --     84.1735                58.3456                51.3673

                     58                     59                     60
                      A                      A                      A
 Frequencies --   3036.9058              3061.7673              3065.9856
 Red. masses --      1.0632                 1.0378                 1.0669
 Frc consts  --      5.7774                 5.7319                 5.9088
 IR Inten    --     24.7313                20.1617                18.4902

                     61                     62                     63
                      A                      A                      A
 Frequencies --   3078.8702              3094.6852              3102.4136
 Red. masses --      1.0941                 1.0931                 1.0969
 Frc consts  --      6.1105                 6.1681                 6.2205
 IR Inten    --     22.9511                46.7594                59.8365

                     64                     65                     66
                      A                      A                      A
 Frequencies --   3127.0251              3135.7196              3154.5495
 Red. masses --      1.1006                 1.1020                 1.1019
 Frc consts  --      6.3409                 6.3844                 6.4605
 IR Inten    --     30.0145                24.2105                17.0853

                     67                     68                     69
                      A                      A                      A
 Frequencies --   3471.8770              3490.6750              3558.9466
 Red. masses --      1.0511                 1.0657                 1.0928
 Frc consts  --      7.4648                 7.6507                 8.1555
 IR Inten    --     16.2646               304.5306                 1.3594

 - Thermochemistry -
 -------------------
 Temperature   298.150 Kelvin.  Pressure   1.00000 Atm.
 Atom     1 has atomic number  6 and mass  12.00000

 Molecular mass:   145.11028 amu.
 Principal axes and moments of inertia in atomic units:
                           1         2         3
     Eigenvalues --   816.324771800.167472064.11807
           X            0.99979   0.01678  -0.01202
           Y           -0.01634   0.99924   0.03546
           Z            0.01260  -0.03525   0.99930
 This molecule is an asymmetric top.
 Rotational symmetry number  1.
 Warning -- assumption of classical behavior for rotation
           may cause significant error
 Rotational temperatures (Kelvin)      0.10610     0.04811     0.04196
 Rotational constants (GHZ):           2.21081     1.00254     0.87434
 Zero-point vibrational energy     593292.4 (Joules/Mol)
                                  141.80028 (Kcal/Mol)
 Warning -- explicit consideration of  15 degrees of freedom as
           vibrations may cause significant error
 Vibrational temperatures:     91.46   128.73   255.48   296.40   332.23
          (Kelvin)            348.56   413.06   428.16   443.45   516.35
                              591.89   655.17   682.46   776.65   893.10
                              937.92  1083.77  1146.68  1233.11  1247.96
                             1268.65  1300.82  1362.31  1397.47  1446.94
                             1450.97  1502.81  1513.21  1535.99  1585.83
                             1599.38  1635.44  1663.05  1722.03  1729.04
                             1805.42  1833.57  1888.61  1920.85  1947.02
                             1983.56  1999.17  2012.31  2026.98  2061.85
                             2072.29  2146.09  2166.36  2168.03  2184.74
                             2194.77  2225.62  2231.91  2430.76  4304.84
                             4318.20  4354.47  4369.43  4405.20  4411.27
                             4429.81  4452.56  4463.68  4499.09  4511.60
                             4538.69  4995.26  5022.30  5120.53

 Zero-point correction=                           0.225973 (Hartree/Particle)
 Thermal correction to Energy=                    0.236340
 Thermal correction to Enthalpy=                  0.237284
 Thermal correction to Gibbs Free Energy=         0.190744
 Sum of electronic and zero-point Energies=           -480.771272
 Sum of electronic and thermal Energies=              -480.760905
 Sum of electronic and thermal Enthalpies=            -480.759961
 Sum of electronic and thermal Free Energies=         -480.806501

                     E (Thermal)             CV                S
                      KCal/Mol        Cal/Mol-Kelvin    Cal/Mol-Kelvin
 Total                  148.305             40.315             97.953
 Electronic               0.000              0.000              0.000
 Translational            0.889              2.981             40.828
 Rotational               0.889              2.981             29.496
 Vibrational            146.528             34.354             27.629
 Vibration     1          0.597              1.972              4.343
 Vibration     2          0.602              1.957              3.672
 Vibration     3          0.628              1.870              2.354
 Vibration     4          0.640              1.831              2.079
 Vibration     5          0.653              1.794              1.872
 Vibration     6          0.658              1.776              1.786
 Vibration     7          0.684              1.698              1.491
 Vibration     8          0.691              1.678              1.430
 Vibration     9          0.698              1.658              1.372
 Vibration    10          0.734              1.557              1.127
 Vibration    11          0.775              1.446              0.922
 Vibration    12          0.814              1.349              0.780
 Vibration    13          0.831              1.307              0.726
 Vibration    14          0.895              1.162              0.566
 Vibration    15          0.981              0.988              0.415

 Optimization completed.
    -- Stationary point found.
 Normal termination of Gaussian 16 at Sun Dec 13 20:00:55 2020.

 ----------------------------------------------------------------------
 # B3LYP/6-311++G(d,p) empiricaldispersion=gd3bj scf=xqc pop=npa geom=c
 heck
 ----------------------------------------------------------------------

 -------------------------------------
 CID_82719607_JID_150_Energie_neutraal
 -------------------------------------
 Structure from the checkpoint file:  "JID_150.chk"
 Charge =  0 Multiplicity = 1

 SCF Done:  E(RB3LYP) =  -481.151787482     A.U. after   13 cycles
 Normal termination of Gaussian 16 at Sun Dec 13 20:02:32 2020.

 ----------------------------------------------------------------------
 # B3LYP/6-311++G(d,p) empiricaldispersion=gd3bj scf=xqc pop=npa geom=c
 heck
 ----------------------------------------------------------------------

 -----------------------------------
 CID_82719607_JID_150_Energie_kation
 -----------------------------------
 Structure from the checkpoint file:  "JID_150.chk"
 Charge =  1 Multiplicity = 2

 SCF Done:  E(UB3LYP) =  -480.832912168     A.U. after   23 cycles
 Normal termination of Gaussian 16 at Sun Dec 13 20:06:11 2020.
 Gaussian 16:  ES64L-G16RevA.03 25-Dec-2016

 ----------------------------------------------------------------------
 # B3LYP/6-311++G(d,p) empiricaldispersion=gd3bj scf=xqc pop=npa geom=c
 heck
 ----------------------------------------------------------------------

 ----------------------------------
 CID_82719607_JID_150_Energie_anion
 ----------------------------------
 Structure from the checkpoint file:  "JID_150.chk"
 Charge = -1 Multiplicity = 2

                         Standard orientation:
 ---------------------------------------------------------------------
 Center     Atomic      Atomic             Coordinates (Angstroms)
 Number     Number       Type             X           Y           Z
 ---------------------------------------------------------------------
      1          6           0       -0.287722    2.090971    0.120230
      2          6           0       -0.716419    0.801030   -0.566992
      3          6           0       -0.118212   -0.508474    0.051027
      4          6           0       -1.330383   -1.451406    0.004943
      5          6           0       -2.482776   -0.488061    0.260271
      6          8           0       -2.147529    0.679208   -0.489876
      7          6           0        1.087630   -1.056957   -0.730773
      8          6           0        2.301446   -0.123622   -0.791924
      9          7           0        2.776555    0.214951    0.564501
     10          8           0        0.208322   -0.344567    1.427756
     11          1           0       -0.810937    2.939077   -0.331712
     12          1           0        0.791133    2.259952    0.028277
     13          1           0       -0.536840    2.045572    1.182919
     14          1           0       -0.459610    0.849596   -1.636234
     15          1           0       -1.234867   -2.244781    0.750596
     16          1           0       -1.427795   -1.899022   -0.990879
     17          1           0       -2.561822   -0.255302    1.331869
     18          1           0       -3.453456   -0.847314   -0.095575
     19          1           0        1.384801   -2.007584   -0.266539
     20          1           0        0.781229   -1.287944   -1.758582
     21          1           0        3.083423   -0.584613   -1.416738
     22          1           0        2.020368    0.814893   -1.281864
     23          1           0        3.213894   -0.602192    0.989136
     24          1           0        3.491004    0.938839    0.521446
     25          1           0        1.075853    0.118151    1.438649
 ---------------------------------------------------------------------

 SCF Done:  E(UB3LYP) =  -481.139955447     A.U. after   25 cycles

 The electronic state is 2-A.
 Alpha  occ. eigenvalues --  -19.01264 -18.99134 -14.18654 -10.11761 -10.11099
 Alpha  occ. eigenvalues --  -10.10885 -10.08040 -10.06284 -10.05732 -10.04817
 Alpha  occ. eigenvalues --   -0.93364  -0.89849  -0.77364  -0.68068  -0.66223
 Alpha  occ. eigenvalues --   -0.61980  -0.56451  -0.50192  -0.48491  -0.45593
 Alpha  occ. eigenvalues --   -0.41091  -0.38952  -0.38067  -0.36208  -0.33517
 Alpha  occ. eigenvalues --   -0.33198  -0.31694  -0.31211  -0.29176  -0.28814
 Alpha  occ. eigenvalues --   -0.26732  -0.25822  -0.25130  -0.23974  -0.23219
 Alpha  occ. eigenvalues --   -0.22764  -0.20982  -0.15653  -0.14713  -0.13714
 Alpha  occ. eigenvalues --    0.04861
 Alpha virt. eigenvalues --    0.07509   0.08403   0.08610   0.10051   0.10072
 Alpha virt. eigenvalues --    0.10877   0.11336   0.11533   0.13024   0.13540
 Alpha virt. eigenvalues --    0.14011   0.14535   0.15646   0.16025   0.16527

  Beta  occ. eigenvalues --  -19.01263 -18.99125 -14.18574 -10.11762 -10.11096
  Beta  occ. eigenvalues --  -10.10874 -10.07992 -10.06275 -10.05710 -10.04801
  Beta  occ. eigenvalues --   -0.93357  -0.89830  -0.77236  -0.68036  -0.66201
  Beta  occ. eigenvalues --   -0.61905  -0.56402  -0.50078  -0.48463  -0.45561
  Beta  occ. eigenvalues --   -0.41064  -0.38921  -0.37957  -0.36150  -0.33471
  Beta  occ. eigenvalues --   -0.33173  -0.31656  -0.31159  -0.29111  -0.28789
  Beta  occ. eigenvalues --   -0.26706  -0.25779  -0.25100  -0.23932  -0.23205
  Beta  occ. eigenvalues --   -0.22725  -0.20953  -0.15634  -0.14699  -0.13641
  Beta virt. eigenvalues --    0.07369   0.08435   0.08864   0.09368   0.10475
  Beta virt. eigenvalues --    0.10769   0.11322   0.11623   0.12063   0.13610
  Beta virt. eigenvalues --    0.14007   0.14493   0.14883   0.15985   0.16377

 Mulliken charges and spin densities:
               1          2
     1  C    0.083071  -0.609258
     2  C   -0.425758  -0.052643
     3  C   -0.396265   0.523699
     4  C    0.136408  -0.193907
     5  C   -0.079855  -0.076257
     6  O   -0.121296   0.010932
     7  C   -0.270979  -0.081514
     8  C    2.643415  -3.197715
     9  N   -0.666695   0.187820
    10  O   -0.223547  -0.004518
    11  H    0.011905   0.121819
    12  H    0.182967  -0.024411
    13  H    0.087435   0.094967
    14  H   -0.162464   0.365154
    15  H    0.124632   0.041822
    16  H   -0.160919   0.299391
    17  H    0.091242   0.041232
    18  H    0.126750   0.042677
    19  H   -0.245515   0.427412
    20  H    0.021787   0.128587
    21  H   -1.004692   1.186283
    22  H   -0.401988   0.567100
    23  H   -0.175774   0.422259
    24  H   -0.469280   0.734991
    25  H    0.295416   0.044079
 Sum of Mulliken charges =  -1.00000   1.00000

 Dipole moment (field-independent basis, Debye):
    X=             -9.0256    Y=             -0.3503    Z=              1.5835  Tot=              9.1702
 Quadrupole moment (field-independent basis, Debye-Ang):
   XX=           -132.0548   YY=            -92.3261   ZZ=            -95.8611
   XY=              2.6176   XZ=              1.9318   YZ=             -1.0857

 Summary of Natural Population Analysis:

                                       Natural Population
                Natural  -----------------------------------------------
    Atom  No    Charge         Core      Valence    Rydberg      Total
 -----------------------------------------------------------------------
      C    1   -0.29845      0.99963     2.29144    0.00738     3.29845
      C    2    0.05734      0.99951     1.92793    0.01522     2.94266
      C    3    0.12516      0.99950     1.85713    0.01822     2.87484
      C    4   -0.20757      0.99958     2.19887    0.00913     3.20757
      C    5   -0.00833      0.99960     1.99757    0.01116     3.00833
      O    6   -0.30939      0.99989     3.30105    0.00845     4.30939
      C    7   -0.20318      0.99957     2.19231    0.01130     3.20318
      C    8   -0.08935      0.99963     2.07667    0.01304     3.08935
      N    9   -0.43919      0.99977     2.92719    0.01224     3.93919
      O   10   -0.40086      0.99989     3.39447    0.00650     4.40086
      H   11    0.09883      0.00000     0.40020    0.00097     0.40117
      H   12    0.10421      0.00000     0.39449    0.00129     0.39579
      H   13    0.10448      0.00000     0.39431    0.00121     0.39552
      H   14    0.08628      0.00000     0.41196    0.00176     0.41372
      H   15    0.10774      0.00000     0.39126    0.00099     0.39226
      H   16    0.09941      0.00000     0.39942    0.00117     0.40059
      H   17    0.08065      0.00000     0.41795    0.00140     0.41935
      H   18    0.08414      0.00000     0.41461    0.00126     0.41586
      H   19    0.10091      0.00000     0.39761    0.00148     0.39909
      H   20    0.10422      0.00000     0.39398    0.00180     0.39578
      H   21    0.09101      0.00000     0.40276    0.00623     0.40899
      H   22    0.08980      0.00000     0.40776    0.00244     0.41020
      H   23    0.18254      0.00000     0.31278    0.00468     0.31746
      H   24    0.19016      0.00000     0.30040    0.00944     0.30984
      H   25    0.24944      0.00000     0.24670    0.00385     0.25056
 =======================================================================
   * Total *   -0.00000      9.99656    29.85083    0.15261    40.00000

 Normal termination of Gaussian 16 at Sun Dec 13 20:10:06 2020.
