 Gaussian 16, Revision A.03,

 -----------------------------------------------------------
 # opt freq B3LYP/6-31G(d) empiricaldispersion=gd3bj scf=xqc
 -----------------------------------------------------------

 ------------------------------
 CID_21084517_JID_2602_neutraal
 ------------------------------
 Symbolic Z-matrix:
 Charge =  0 Multiplicity = 1

 SCF Done:  E(RB3LYP) =  -505.025855724     A.U. after   12 cycles
 SCF Done:  E(RB3LYP) =  -505.034155940     A.U. after   11 cycles
 SCF Done:  E(RB3LYP) =  -505.035032672     A.U. after   11 cycles
 SCF Done:  E(RB3LYP) =  -505.034664810     A.U. after   11 cycles
 SCF Done:  E(RB3LYP) =  -505.035902214     A.U. after   10 cycles
 SCF Done:  E(RB3LYP) =  -505.036134101     A.U. after   10 cycles
 SCF Done:  E(RB3LYP) =  -505.036225231     A.U. after   10 cycles
 SCF Done:  E(RB3LYP) =  -505.036561492     A.U. after   11 cycles
 SCF Done:  E(RB3LYP) =  -505.037582850     A.U. after   11 cycles
 SCF Done:  E(RB3LYP) =  -505.005102899     A.U. after   12 cycles
 SCF Done:  E(RB3LYP) =  -505.040402195     A.U. after    8 cycles
 SCF Done:  E(RB3LYP) =  -505.040403749     A.U. after    7 cycles
 SCF Done:  E(RB3LYP) =  -505.040404160     A.U. after    7 cycles
 SCF Done:  E(RB3LYP) =  -505.040404329     A.U. after    6 cycles
 SCF Done:  E(RB3LYP) =  -505.040405996     A.U. after    8 cycles
 SCF Done:  E(RB3LYP) =  -505.040406102     A.U. after    6 cycles
 Optimization completed.
    -- Stationary point found.
 Normal termination of Gaussian 16 at Wed Dec  9 17:54:32 2020.

 --------------------------------------------------------------------
 #N Geom=AllCheck Guess=TCheck SCRF=Check GenChk RB3LYP/6-31G(d) Freq
 --------------------------------------------------------------------

 Structure from the checkpoint file:  "JID_2602.chk"
 ------------------------------
 CID_21084517_JID_2602_neutraal
 ------------------------------
 Charge =  0 Multiplicity = 1

 SCF Done:  E(RB3LYP) =  -505.040406102     A.U. after    1 cycles

  Exact polarizability: 125.908   0.146 123.555  -0.840   1.363 113.068
 Approx polarizability: 162.358  -0.438 162.050  -0.733   1.931 163.001

                      1                      2                      3
                      A                      A                      A
 Frequencies --     39.2542                68.1212                78.5131
 Red. masses --      2.6115                 2.6757                 1.9421
 Frc consts  --      0.0024                 0.0073                 0.0071
 IR Inten    --      0.0284                 0.0113                 0.6265

                      4                      5                      6
                      A                      A                      A
 Frequencies --     89.4234               115.4978               134.2205
 Red. masses --      2.3659                 2.4782                 2.4407
 Frc consts  --      0.0111                 0.0195                 0.0259
 IR Inten    --      1.6852                 2.3495                 1.4237

                      7                      8                      9
                      A                      A                      A
 Frequencies --    144.3680               147.0524               203.9129
 Red. masses --      2.4610                 2.3267                 1.7463
 Frc consts  --      0.0302                 0.0296                 0.0428
 IR Inten    --      0.6884                 0.8999                 3.6825

                     10                     11                     12
                      A                      A                      A
 Frequencies --    223.6527               243.8996               254.2955
 Red. masses --      1.6376                 1.9496                 1.1428
 Frc consts  --      0.0483                 0.0683                 0.0435
 IR Inten    --      0.1930                 1.4186                 0.3521

                     13                     14                     15
                      A                      A                      A
 Frequencies --    259.7089               278.7591               300.9359
 Red. masses --      1.7949                 1.7909                 1.3150
 Frc consts  --      0.0713                 0.0820                 0.0702
 IR Inten    --      0.8223                 1.3255                26.6001

                     16                     17                     18
                      A                      A                      A
 Frequencies --    309.0199               353.7814               361.7953
 Red. masses --      1.9231                 2.8390                 2.7173
 Frc consts  --      0.1082                 0.2094                 0.2096
 IR Inten    --     11.0788                 5.6370                 0.3106

                     19                     20                     21
                      A                      A                      A
 Frequencies --    406.3132               424.1424               493.4475
 Red. masses --      1.8407                 1.9166                 2.6615
 Frc consts  --      0.1790                 0.2031                 0.3818
 IR Inten    --      0.0846                 3.2993                 3.6618

                     22                     23                     24
                      A                      A                      A
 Frequencies --    530.9052               566.1556               707.1279
 Red. masses --      2.5565                 2.7396                 2.0780
 Frc consts  --      0.4245                 0.5174                 0.6122
 IR Inten    --      5.9956                 2.7685                 5.6410

                     25                     26                     27
                      A                      A                      A
 Frequencies --    753.3417               778.1769               793.0230
 Red. masses --      1.2135                 1.4952                 1.3249
 Frc consts  --      0.4058                 0.5334                 0.4909
 IR Inten    --      1.7546                26.2553                18.9245

                     28                     29                     30
                      A                      A                      A
 Frequencies --    813.0210               845.9566               867.4590
 Red. masses --      1.5459                 1.7448                 1.5184
 Frc consts  --      0.6020                 0.7357                 0.6732
 IR Inten    --      2.8382                 2.0838                16.2162

                     31                     32                     33
                      A                      A                      A
 Frequencies --    897.6431               911.3560               922.3176
 Red. masses --      1.5279                 2.1251                 1.9569
 Frc consts  --      0.7253                 1.0399                 0.9808
 IR Inten    --      0.9010                 3.5516                14.7277

                     34                     35                     36
                      A                      A                      A
 Frequencies --    931.2682               975.6358              1008.0473
 Red. masses --      1.6679                 1.5505                 1.8833
 Frc consts  --      0.8522                 0.8695                 1.1275
 IR Inten    --      6.6651                68.9964                 2.8747

                     37                     38                     39
                      A                      A                      A
 Frequencies --   1039.7025              1054.2327              1069.8817
 Red. masses --      2.1525                 1.8964                 2.2324
 Frc consts  --      1.3709                 1.2418                 1.5055
 IR Inten    --      1.1380                14.4533                 0.5821

                     40                     41                     42
                      A                      A                      A
 Frequencies --   1083.2266              1099.6757              1110.0461
 Red. masses --      1.7927                 1.8162                 1.9554
 Frc consts  --      1.2394                 1.2940                 1.4196
 IR Inten    --      0.8194                 1.1447                 1.2235

                     43                     44                     45
                      A                      A                      A
 Frequencies --   1124.4181              1140.7181              1151.4424
 Red. masses --      1.7077                 1.7787                 2.1280
 Frc consts  --      1.2721                 1.3637                 1.6623
 IR Inten    --      5.9257                 0.7575                 9.2496

                     46                     47                     48
                      A                      A                      A
 Frequencies --   1192.9663              1200.3545              1225.3587
 Red. masses --      2.4581                 2.1736                 2.2593
 Frc consts  --      2.0611                 1.8452                 1.9987
 IR Inten    --      4.6204                 6.2911                 8.1749

                     49                     50                     51
                      A                      A                      A
 Frequencies --   1282.1325              1292.5055              1317.0685
 Red. masses --      1.2446                 1.2782                 1.2049
 Frc consts  --      1.2055                 1.2581                 1.2315
 IR Inten    --      1.3834                 0.4854                 5.1116

                     52                     53                     54
                      A                      A                      A
 Frequencies --   1319.0811              1326.6825              1336.7024
 Red. masses --      1.3152                 1.2251                 1.1850
 Frc consts  --      1.3483                 1.2705                 1.2475
 IR Inten    --      2.4107                 2.7085                 2.9887

                     55                     56                     57
                      A                      A                      A
 Frequencies --   1345.3698              1362.5172              1384.5340
 Red. masses --      1.3745                 1.1694                 1.3304
 Frc consts  --      1.4658                 1.2791                 1.5026
 IR Inten    --      3.8582                 2.9376                 0.7259

                     58                     59                     60
                      A                      A                      A
 Frequencies --   1399.7084              1405.7982              1408.2769
 Red. masses --      1.4819                 1.3606                 1.3792
 Frc consts  --      1.7105                 1.5842                 1.6116
 IR Inten    --      6.5154                 1.2016                 0.6025

                     61                     62                     63
                      A                      A                      A
 Frequencies --   1421.1636              1438.6192              1439.2801
 Red. masses --      1.5208                 1.2520                 1.2581
 Frc consts  --      1.8097                 1.5267                 1.5355
 IR Inten    --      0.4292                 4.1416                 3.1841

                     64                     65                     66
                      A                      A                      A
 Frequencies --   1442.1992              1502.0914              1509.6029
 Red. masses --      1.2431                 1.0986                 1.0848
 Frc consts  --      1.5233                 1.4604                 1.4566
 IR Inten    --      2.2189                 2.3146                 2.5350

                     67                     68                     69
                      A                      A                      A
 Frequencies --   1522.0344              1523.9566              1525.8004
 Red. masses --      1.0601                 1.0495                 1.0667
 Frc consts  --      1.4469                 1.4361                 1.4632
 IR Inten    --      0.5837                 5.4757                 1.4651

                     70                     71                     72
                      A                      A                      A
 Frequencies --   1528.7972              1529.9541              1531.0645
 Red. masses --      1.0463                 1.0456                 1.0498
 Frc consts  --      1.4408                 1.4421                 1.4499
 IR Inten    --      3.0315                 4.3847                 2.7141

                     73                     74                     75
                      A                      A                      A
 Frequencies --   1535.8672              1538.6623              1542.3763
 Red. masses --      1.0768                 1.0956                 1.1014
 Frc consts  --      1.4966                 1.5283                 1.5438
 IR Inten    --      3.1173                 5.2015                 3.2145

                     76                     77                     78
                      A                      A                      A
 Frequencies --   1547.6695              1548.8872              1705.9603
 Red. masses --      1.0705                 1.0807                 1.0807
 Frc consts  --      1.5108                 1.5276                 1.8530
 IR Inten    --      4.3668                 1.0701                13.4641

                     79                     80                     81
                      A                      A                      A
 Frequencies --   3001.5426              3010.4177              3024.9851
 Red. masses --      1.0718                 1.0712                 1.0656
 Frc consts  --      5.6893                 5.7200                 5.7448
 IR Inten    --      8.3828                58.8417                16.9022

                     82                     83                     84
                      A                      A                      A
 Frequencies --   3032.8108              3036.2243              3039.0943
 Red. masses --      1.0652                 1.0372                 1.0456
 Frc consts  --      5.7724                 5.6333                 5.6900
 IR Inten    --     34.9986                41.8568                42.7834

                     85                     86                     87
                      A                      A                      A
 Frequencies --   3044.7509              3045.6037              3047.7684
 Red. masses --      1.0541                 1.0467                 1.0708
 Frc consts  --      5.7574                 5.7201                 5.8603
 IR Inten    --     41.6306                15.8925                21.0487

                     88                     89                     90
                      A                      A                      A
 Frequencies --   3073.7887              3075.5246              3084.0256
 Red. masses --      1.0971                 1.0956                 1.0923
 Frc consts  --      6.1074                 6.1055                 6.1213
 IR Inten    --     27.9380                18.4814                 6.7066

                     91                     92                     93
                      A                      A                      A
 Frequencies --   3088.8886              3091.8389              3098.4220
 Red. masses --      1.0908                 1.0990                 1.0986
 Frc consts  --      6.1317                 6.1900                 6.2142
 IR Inten    --     49.3230                25.5410                65.2510

                     94                     95                     96
                      A                      A                      A
 Frequencies --   3103.6805              3107.7693              3109.2081
 Red. masses --      1.0902                 1.1009                 1.1018
 Frc consts  --      6.1872                 6.2645                 6.2755
 IR Inten    --     14.6719                57.8436                48.7078

                     97                     98                     99
                      A                      A                      A
 Frequencies --   3120.0241              3130.5564              3154.3608
 Red. masses --      1.1012                 1.0969                 1.0979
 Frc consts  --      6.3157                 6.3337                 6.4364
 IR Inten    --     51.5861                32.1098                16.9661

                    100                    101                    102
                      A                      A                      A
 Frequencies --   3398.8079              3422.3853              3543.3918
 Red. masses --      1.0710                 1.0563                 1.0896
 Frc consts  --      7.2895                 7.2893                 8.0607
 IR Inten    --     22.0252                10.7067                 0.1904

 - Thermochemistry -
 -------------------
 Temperature   298.150 Kelvin.  Pressure   1.00000 Atm.
 Atom     1 has atomic number  6 and mass  12.00000

 Molecular mass:   172.19395 amu.
 Principal axes and moments of inertia in atomic units:
                           1         2         3
     Eigenvalues --  2380.071432580.187213456.11187
           X            0.99987  -0.01599   0.00287
           Y            0.01603   0.99976  -0.01506
           Z           -0.00263   0.01510   0.99988
 This molecule is an asymmetric top.
 Rotational symmetry number  1.
 Warning -- assumption of classical behavior for rotation
           may cause significant error
 Rotational temperatures (Kelvin)      0.03639     0.03357     0.02506
 Rotational constants (GHZ):           0.75827     0.69946     0.52219
 Zero-point vibrational energy     891958.4 (Joules/Mol)
                                  213.18318 (Kcal/Mol)
 Warning -- explicit consideration of  23 degrees of freedom as
           vibrations may cause significant error
 Vibrational temperatures:     56.48    98.01   112.96   128.66   166.18
          (Kelvin)            193.11   207.71   211.58   293.39   321.79
                              350.92   365.87   373.66   401.07   432.98
                              444.61   509.01   520.54   584.59   610.25
                              709.96   763.85   814.57  1017.40  1083.89
                             1119.62  1140.98  1169.76  1217.14  1248.08
                             1291.51  1311.24  1327.01  1339.89  1403.72
                             1450.36  1495.90  1516.81  1539.32  1558.52
                             1582.19  1597.11  1617.79  1641.24  1656.67
                             1716.41  1727.04  1763.02  1844.70  1859.63
                             1894.97  1897.86  1908.80  1923.22  1935.69
                             1960.36  1992.04  2013.87  2022.63  2026.20
                             2044.74  2069.85  2070.80  2075.00  2161.17
                             2171.98  2189.87  2192.63  2195.29  2199.60
                             2201.26  2202.86  2209.77  2213.79  2219.14
                             2226.75  2228.50  2454.50  4318.55  4331.32
                             4352.28  4363.54  4368.45  4372.58  4380.72
                             4381.94  4385.06  4422.50  4424.99  4437.22
                             4444.22  4448.47  4457.94  4465.50  4471.39
                             4473.46  4489.02  4504.17  4538.42  4890.13
                             4924.05  5098.15

 Zero-point correction=                           0.339729 (Hartree/Particle)
 Thermal correction to Energy=                    0.355461
 Thermal correction to Enthalpy=                  0.356405
 Thermal correction to Gibbs Free Energy=         0.297428
 Sum of electronic and zero-point Energies=           -504.700677
 Sum of electronic and thermal Energies=              -504.684946
 Sum of electronic and thermal Enthalpies=            -504.684001
 Sum of electronic and thermal Free Energies=         -504.742978

                     E (Thermal)             CV                S
                      KCal/Mol        Cal/Mol-Kelvin    Cal/Mol-Kelvin
 Total                  223.055             58.318            124.126
 Electronic               0.000              0.000              0.000
 Translational            0.889              2.981             41.338
 Rotational               0.889              2.981             31.429
 Vibrational            221.277             52.357             51.359
 Vibration     1          0.594              1.981              5.296
 Vibration     2          0.598              1.969              4.207
 Vibration     3          0.600              1.964              3.928
 Vibration     4          0.602              1.957              3.673
 Vibration     5          0.608              1.937              3.174
 Vibration     6          0.613              1.919              2.885
 Vibration     7          0.616              1.909              2.745
 Vibration     8          0.617              1.906              2.710
 Vibration     9          0.640              1.834              2.098
 Vibration    10          0.649              1.805              1.929
 Vibration    11          0.659              1.773              1.774
 Vibration    12          0.665              1.756              1.701
 Vibration    13          0.668              1.746              1.664
 Vibration    14          0.679              1.713              1.541
 Vibration    15          0.693              1.672              1.412
 Vibration    16          0.698              1.657              1.368
 Vibration    17          0.730              1.567              1.149
 Vibration    18          0.736              1.551              1.114
 Vibration    19          0.771              1.456              0.940
 Vibration    20          0.786              1.418              0.878
 Vibration    21          0.849              1.265              0.675
 Vibration    22          0.886              1.182              0.585
 Vibration    23          0.922              1.104              0.512

 Optimization completed.
    -- Stationary point found.
 Normal termination of Gaussian 16 at Wed Dec  9 18:05:03 2020.

 ----------------------------------------------------------------------
 # B3LYP/6-311++G(d,p) empiricaldispersion=gd3bj scf=xqc pop=npa geom=c
 heck
 ----------------------------------------------------------------------

 --------------------------------------
 CID_21084517_JID_2602_Energie_neutraal
 --------------------------------------
 Structure from the checkpoint file:  "JID_2602.chk"
 Charge =  0 Multiplicity = 1

 SCF Done:  E(RB3LYP) =  -505.193878384     A.U. after   13 cycles
 Normal termination of Gaussian 16 at Wed Dec  9 18:10:02 2020.

 ----------------------------------------------------------------------
 # B3LYP/6-311++G(d,p) empiricaldispersion=gd3bj scf=xqc pop=npa geom=c
 heck
 ----------------------------------------------------------------------

 ------------------------------------
 CID_21084517_JID_2602_Energie_kation
 ------------------------------------
 Structure from the checkpoint file:  "JID_2602.chk"
 Charge =  1 Multiplicity = 2

 SCF Done:  E(UB3LYP) =  -504.887044837     A.U. after   20 cycles
 Normal termination of Gaussian 16 at Wed Dec  9 18:20:34 2020.
 Gaussian 16:  ES64L-G16RevA.03 25-Dec-2016

 ----------------------------------------------------------------------
 # B3LYP/6-311++G(d,p) empiricaldispersion=gd3bj scf=xqc pop=npa geom=c
 heck
 ----------------------------------------------------------------------

 -----------------------------------
 CID_21084517_JID_2602_Energie_anion
 -----------------------------------
 Structure from the checkpoint file:  "JID_2602.chk"
 Charge = -1 Multiplicity = 2

                         Standard orientation:
 ---------------------------------------------------------------------
 Center     Atomic      Atomic             Coordinates (Angstroms)
 Number     Number       Type             X           Y           Z
 ---------------------------------------------------------------------
      1          6           0       -2.305562    2.596616   -1.235318
      2          6           0       -1.824788    1.528398   -0.249190
      3          6           0       -0.463422    0.955329   -0.664074
      4          6           0        0.202462   -0.092346    0.264124
      5          6           0       -0.829043   -1.084749    0.862282
      6          6           0       -1.653895   -1.927534   -0.138904
      7          6           0       -1.192835   -3.384983   -0.251021
      8          6           0        1.268265   -0.886281   -0.532349
      9          6           0        2.347304   -0.107363   -1.305779
     10          6           0        3.439177    0.544261   -0.451882
     11          7           0        0.932671    0.604505    1.351464
     12          7           0        0.076654    1.260351    2.291953
     13          1           0       -3.284127    2.997186   -0.946602
     14          1           0       -2.398035    2.190357   -2.250856
     15          1           0       -1.601528    3.436753   -1.280938
     16          1           0       -1.747359    1.946943    0.757455
     17          1           0       -2.571988    0.725733   -0.202198
     18          1           0       -0.570546    0.512355   -1.664403
     19          1           0        0.247147    1.782532   -0.773089
     20          1           0       -0.284966   -1.763900    1.536913
     21          1           0       -1.506671   -0.504757    1.495196
     22          1           0       -2.708337   -1.919711    0.163726
     23          1           0       -1.630461   -1.461840   -1.131464
     24          1           0       -1.272933   -3.893638    0.717406
     25          1           0       -1.802521   -3.941940   -0.971813
     26          1           0       -0.147887   -3.455174   -0.572068
     27          1           0        1.761631   -1.592978    0.154078
     28          1           0        0.725457   -1.506122   -1.254110
     29          1           0        2.820797   -0.814636   -2.000429
     30          1           0        1.871615    0.653101   -1.936272
     31          1           0        3.933410   -0.202293    0.184154
     32          1           0        4.209801    0.998073   -1.086336
     33          1           0        3.019797    1.312354    0.200998
     34          1           0        1.520350   -0.087238    1.822530
     35          1           0       -0.176193    0.646694    3.068733
     36          1           0        0.602296    2.040073    2.678130
 ---------------------------------------------------------------------

 SCF Done:  E(UB3LYP) =  -505.178994551     A.U. after   27 cycles

 The electronic state is 2-A.
 Alpha  occ. eigenvalues --  -14.20716 -14.20567 -10.09613 -10.06370 -10.06257
 Alpha  occ. eigenvalues --  -10.05987 -10.05986 -10.05748 -10.05381 -10.05279
 Alpha  occ. eigenvalues --  -10.05169 -10.04807  -0.84963  -0.72662  -0.67645
 Alpha  occ. eigenvalues --   -0.67301  -0.65426  -0.60381  -0.57558  -0.57345
 Alpha  occ. eigenvalues --   -0.50699  -0.48949  -0.48005  -0.42983  -0.39766
 Alpha  occ. eigenvalues --   -0.38126  -0.37831  -0.35293  -0.34848  -0.33385
 Alpha  occ. eigenvalues --   -0.32707  -0.32405  -0.30733  -0.30429  -0.29142
 Alpha  occ. eigenvalues --   -0.28082  -0.26862  -0.26480  -0.24873  -0.24424
 Alpha  occ. eigenvalues --   -0.23848  -0.23445  -0.22863  -0.22616  -0.22497
 Alpha  occ. eigenvalues --   -0.20525  -0.19854  -0.14364  -0.12212   0.04585
 Alpha virt. eigenvalues --    0.06707   0.06958   0.07180   0.08846   0.09054
 Alpha virt. eigenvalues --    0.09358   0.09585   0.09686   0.11088   0.11606
 Alpha virt. eigenvalues --    0.11821   0.12165   0.12509   0.12957   0.12977

  Beta  occ. eigenvalues --  -14.20691 -14.20517 -10.09614 -10.06358 -10.06250
  Beta  occ. eigenvalues --  -10.05972 -10.05972 -10.05723 -10.05371 -10.05272
  Beta  occ. eigenvalues --  -10.05148 -10.04789  -0.84908  -0.72621  -0.67620
  Beta  occ. eigenvalues --   -0.67278  -0.65370  -0.60317  -0.57517  -0.57307
  Beta  occ. eigenvalues --   -0.50651  -0.48902  -0.47957  -0.42939  -0.39677
  Beta  occ. eigenvalues --   -0.38103  -0.37776  -0.35273  -0.34823  -0.33354
  Beta  occ. eigenvalues --   -0.32683  -0.32376  -0.30700  -0.30398  -0.29109
  Beta  occ. eigenvalues --   -0.28055  -0.26840  -0.26453  -0.24841  -0.24401
  Beta  occ. eigenvalues --   -0.23824  -0.23415  -0.22829  -0.22585  -0.22482
  Beta  occ. eigenvalues --   -0.20498  -0.19831  -0.14312  -0.12168
  Beta virt. eigenvalues --    0.06557   0.07312   0.07533   0.07864   0.09270
  Beta virt. eigenvalues --    0.09339   0.09613   0.09961   0.10143   0.11356
  Beta virt. eigenvalues --    0.12024   0.12137   0.12541   0.12716   0.13110

 Mulliken charges and spin densities:
               1          2
     1  C    0.049584  -0.726597
     2  C   -0.349582   0.080727
     3  C   -1.072425   0.263231
     4  C    2.043577  -1.451258
     5  C   -0.522450   0.365044
     6  C   -0.454452   0.155588
     7  C    1.061263  -1.720005
     8  C    0.278796  -0.562716
     9  C   -0.741918   0.542712
    10  C    0.331833  -1.002263
    11  N   -0.170329   0.197710
    12  N   -0.281302  -0.168566
    13  H   -0.060223   0.201121
    14  H   -0.028323   0.154639
    15  H   -0.001182   0.131653
    16  H    0.108633   0.128912
    17  H    0.049050   0.088539
    18  H    0.004390   0.124049
    19  H    0.330698  -0.202432
    20  H   -0.508446   0.691415
    21  H    0.080399   0.076934
    22  H   -0.096209   0.240587
    23  H    0.099706   0.054189
    24  H   -0.186412   0.328314
    25  H   -0.102030   0.228929
    26  H   -0.238972   0.371116
    27  H   -0.024571   0.196870
    28  H    0.147062  -0.025049
    29  H   -0.109970   0.262129
    30  H   -0.003377   0.138834
    31  H   -0.167791   0.294745
    32  H   -0.029081   0.146799
    33  H   -0.040284   0.242350
    34  H   -0.035169   0.298267
    35  H   -0.265026   0.495158
    36  H   -0.095468   0.358324
 Sum of Mulliken charges =  -1.00000   1.00000

 Dipole moment (field-independent basis, Debye):
    X=             -1.1167    Y=              1.4540    Z=             -4.6039  Tot=              4.9555
 Quadrupole moment (field-independent basis, Debye-Ang):
   XX=           -129.1537   YY=           -132.1464   ZZ=           -127.4458
   XY=             -0.0433   XZ=             -3.6374   YZ=              0.3299

 Summary of Natural Population Analysis:

                                       Natural Population
                Natural  -----------------------------------------------
    Atom  No    Charge         Core      Valence    Rydberg      Total
 -----------------------------------------------------------------------
      C    1   -0.28117      0.99967     2.27761    0.00388     3.28117
      C    2   -0.19678      0.99963     2.19095    0.00621     3.19678
      C    3   -0.19428      0.99957     2.18529    0.00942     3.19428
      C    4    0.07074      0.99954     1.91172    0.01799     2.92926
      C    5   -0.20509      0.99958     2.19353    0.01198     3.20509
      C    6   -0.19593      0.99964     2.18753    0.00876     3.19593
      C    7   -0.28090      0.99966     2.27719    0.00405     3.28090
      C    8   -0.19249      0.99957     2.18101    0.01191     3.19249
      C    9   -0.18726      0.99963     2.18045    0.00718     3.18726
      C   10   -0.28777      0.99966     2.28378    0.00434     3.28777
      N   11   -0.26348      0.99970     2.74657    0.01721     3.76348
      N   12   -0.33220      0.99976     2.81939    0.01306     3.83220
      H   13    0.09557      0.00000     0.40351    0.00092     0.40443
      H   14    0.09160      0.00000     0.40729    0.00110     0.40840
      H   15    0.09387      0.00000     0.40505    0.00108     0.40613
      H   16    0.11082      0.00000     0.38745    0.00173     0.38918
      H   17    0.09087      0.00000     0.40757    0.00155     0.40913
      H   18    0.09275      0.00000     0.40595    0.00130     0.40725
      H   19    0.10348      0.00000     0.39501    0.00151     0.39652
      H   20    0.09864      0.00000     0.39941    0.00196     0.40136
      H   21    0.10629      0.00000     0.39172    0.00200     0.39371
      H   22    0.09511      0.00000     0.40384    0.00105     0.40489
      H   23    0.09444      0.00000     0.40422    0.00134     0.40556
      H   24    0.09646      0.00000     0.40227    0.00127     0.40354
      H   25    0.09492      0.00000     0.40406    0.00102     0.40508
      H   26    0.09616      0.00000     0.40256    0.00128     0.40384
      H   27    0.09682      0.00000     0.40161    0.00157     0.40318
      H   28    0.10002      0.00000     0.39849    0.00149     0.39998
      H   29    0.09147      0.00000     0.40744    0.00109     0.40853
      H   30    0.09395      0.00000     0.40479    0.00126     0.40605
      H   31    0.09363      0.00000     0.40512    0.00124     0.40637
      H   32    0.09117      0.00000     0.40784    0.00099     0.40883
      H   33    0.10932      0.00000     0.38919    0.00150     0.39068
      H   34    0.16463      0.00000     0.33001    0.00536     0.33537
      H   35    0.16912      0.00000     0.32663    0.00425     0.33088
      H   36    0.17551      0.00000     0.32215    0.00235     0.32449
 =======================================================================
   * Total *   -0.00000     11.99561    36.84820    0.15618    49.00000

 Normal termination of Gaussian 16 at Wed Dec  9 18:34:47 2020.
