 Gaussian 16, Revision A.03,

 -----------------------------------------------------------
 # opt freq B3LYP/6-31G(d) empiricaldispersion=gd3bj scf=xqc
 -----------------------------------------------------------

 --------------------------------
 CID_150627601_JID_10353_neutraal
 --------------------------------
 Symbolic Z-matrix:
 Charge =  0 Multiplicity = 1

 SCF Done:  E(RB3LYP) =  -869.244098285     A.U. after   18 cycles
 SCF Done:  E(RB3LYP) =  -869.251876697     A.U. after   15 cycles
 SCF Done:  E(RB3LYP) =  -869.254013214     A.U. after   14 cycles
 SCF Done:  E(RB3LYP) =  -869.255493510     A.U. after   14 cycles
 SCF Done:  E(RB3LYP) =  -869.255789788     A.U. after   12 cycles
 SCF Done:  E(RB3LYP) =  -869.255892998     A.U. after   12 cycles
 SCF Done:  E(RB3LYP) =  -869.255943163     A.U. after   11 cycles
 SCF Done:  E(RB3LYP) =  -869.255958334     A.U. after   10 cycles
 SCF Done:  E(RB3LYP) =  -869.255965015     A.U. after   10 cycles
 SCF Done:  E(RB3LYP) =  -869.255969134     A.U. after   10 cycles
 SCF Done:  E(RB3LYP) =  -869.255973492     A.U. after    7 cycles
 SCF Done:  E(RB3LYP) =  -869.255973605     A.U. after    7 cycles
 SCF Done:  E(RB3LYP) =  -869.255973734     A.U. after    7 cycles
 SCF Done:  E(RB3LYP) =  -869.255973837     A.U. after    7 cycles
 SCF Done:  E(RB3LYP) =  -869.255973871     A.U. after    7 cycles
 Optimization completed.
    -- Stationary point found.
 Normal termination of Gaussian 16 at Sat Dec 12 15:14:14 2020.

 --------------------------------------------------------------------
 #N Geom=AllCheck Guess=TCheck SCRF=Check GenChk RB3LYP/6-31G(d) Freq
 --------------------------------------------------------------------

 Structure from the checkpoint file:  "JID_10353.chk"
 --------------------------------
 CID_150627601_JID_10353_neutraal
 --------------------------------
 Charge =  0 Multiplicity = 1

 SCF Done:  E(RB3LYP) =  -869.255973871     A.U. after    1 cycles

  Exact polarizability: 310.762  -2.647 215.858  -5.589  -3.549  78.059
 Approx polarizability: 490.083 -13.132 355.748 -12.709  -9.951 125.788

                      1                      2                      3
                      A                      A                      A
 Frequencies --     32.6848                55.9735                68.4843
 Red. masses --      5.1676                 3.9226                 4.9431
 Frc consts  --      0.0033                 0.0072                 0.0137
 IR Inten    --      0.2734                 1.2495                 0.2429

                      4                      5                      6
                      A                      A                      A
 Frequencies --     74.3061                91.3943               127.5146
 Red. masses --      1.4195                 4.7651                 2.8458
 Frc consts  --      0.0046                 0.0235                 0.0273
 IR Inten    --      0.1254                 0.2526                 0.6837

                      7                      8                      9
                      A                      A                      A
 Frequencies --    131.8714               148.4890               170.4873
 Red. masses --      3.0081                 6.1655                 1.8676
 Frc consts  --      0.0308                 0.0801                 0.0320
 IR Inten    --      2.3631                 1.4568                 1.6106

                     10                     11                     12
                      A                      A                      A
 Frequencies --    192.5040               222.2345               256.0386
 Red. masses --      3.5475                 6.3429                 5.1350
 Frc consts  --      0.0775                 0.1846                 0.1983
 IR Inten    --      1.1487                 0.8578                 0.4709

                     13                     14                     15
                      A                      A                      A
 Frequencies --    268.6234               309.4756               325.8052
 Red. masses --      3.1386                 4.8146                 4.6357
 Frc consts  --      0.1334                 0.2717                 0.2899
 IR Inten    --      0.4145                 1.6488                 0.5863

                     16                     17                     18
                      A                      A                      A
 Frequencies --    354.7461               365.6946               446.0295
 Red. masses --      4.4752                 2.4204                 3.1743
 Frc consts  --      0.3318                 0.1907                 0.3721
 IR Inten    --      0.1289                 1.8324                 3.3294

                     19                     20                     21
                      A                      A                      A
 Frequencies --    453.0436               465.9061               502.4394
 Red. masses --      5.7893                 4.4258                 7.2603
 Frc consts  --      0.7001                 0.5660                 1.0799
 IR Inten    --      0.9068                 2.9397                 2.0742

                     22                     23                     24
                      A                      A                      A
 Frequencies --    512.9244               565.2087               572.4512
 Red. masses --      6.6625                13.9357                 5.0369
 Frc consts  --      1.0328                 2.6230                 0.9725
 IR Inten    --      0.6341                 9.4924                13.2225

                     25                     26                     27
                      A                      A                      A
 Frequencies --    582.9214               613.8333               651.8691
 Red. masses --      4.1416                 4.6290                 4.9405
 Frc consts  --      0.8292                 1.0276                 1.2369
 IR Inten    --      0.6151                 1.9494                 4.6819

                     28                     29                     30
                      A                      A                      A
 Frequencies --    660.3024               704.2711               716.3773
 Red. masses --      6.6418                 7.0458                 5.1065
 Frc consts  --      1.7062                 2.0590                 1.5440
 IR Inten    --     15.0796                 0.5672                 7.6560

                     31                     32                     33
                      A                      A                      A
 Frequencies --    738.0249               759.7644               782.3467
 Red. masses --      7.3146                 1.3562                 4.4013
 Frc consts  --      2.3474                 0.4612                 1.5872
 IR Inten    --     18.4742                45.0937                 4.3664

                     34                     35                     36
                      A                      A                      A
 Frequencies --    799.4755               806.7411               851.7495
 Red. masses --      4.7338                 4.2018                 1.5028
 Frc consts  --      1.7827                 1.6112                 0.6424
 IR Inten    --     13.9003                 8.8126                23.6821

                     37                     38                     39
                      A                      A                      A
 Frequencies --    865.3502               895.3012               923.8670
 Red. masses --      1.5211                 6.7415                 3.6672
 Frc consts  --      0.6711                 3.1838                 1.8442
 IR Inten    --      4.5719                31.6675                 4.5677

                     40                     41                     42
                      A                      A                      A
 Frequencies --    935.5499               984.6502               991.7225
 Red. masses --      1.3257                 1.2795                 3.3327
 Frc consts  --      0.6836                 0.7309                 1.9312
 IR Inten    --      1.4128                 0.4217                 6.7720

                     43                     44                     45
                      A                      A                      A
 Frequencies --    995.1713              1005.7266              1049.3238
 Red. masses --      1.3982                 8.4849                 2.0777
 Frc consts  --      0.8159                 5.0566                 1.3479
 IR Inten    --      0.8259                 7.6419                15.1624

                     46                     47                     48
                      A                      A                      A
 Frequencies --   1070.1062              1073.1106              1132.3210
 Red. masses --      1.4632                 2.0905                 2.4606
 Frc consts  --      0.9872                 1.4184                 1.8588
 IR Inten    --      7.6285                18.2708                60.0665

                     49                     50                     51
                      A                      A                      A
 Frequencies --   1148.0312              1156.0686              1163.9926
 Red. masses --      1.4954                 1.3004                 1.4765
 Frc consts  --      1.1612                 1.0240                 1.1787
 IR Inten    --      2.8690                12.4068                 9.1458

                     52                     53                     54
                      A                      A                      A
 Frequencies --   1186.1770              1195.0984              1238.3689
 Red. masses --      1.3759                 2.0274                 4.8518
 Frc consts  --      1.1406                 1.7060                 4.3838
 IR Inten    --      0.1530                26.9558                12.0656

                     55                     56                     57
                      A                      A                      A
 Frequencies --   1252.5036              1287.9907              1305.6802
 Red. masses --      3.3265                 4.8574                 2.0349
 Frc consts  --      3.0747                 4.7477                 2.0439
 IR Inten    --     24.4319                 5.1382                 3.1063

                     58                     59                     60
                      A                      A                      A
 Frequencies --   1366.0477              1377.6425              1402.6358
 Red. masses --      2.7024                 4.1575                 4.0069
 Frc consts  --      2.9712                 4.6489                 4.6446
 IR Inten    --     31.7843               237.8791                 0.6373

                     61                     62                     63
                      A                      A                      A
 Frequencies --   1415.9491              1426.6685              1440.8423
 Red. masses --      3.7905                 4.0258                 1.4863
 Frc consts  --      4.4775                 4.8278                 1.8180
 IR Inten    --     44.9180               997.3367                18.1644

                     64                     65                     66
                      A                      A                      A
 Frequencies --   1455.5711              1477.3665              1488.6759
 Red. masses --      2.4399                 3.2810                 1.5787
 Frc consts  --      3.0457                 4.2192                 2.0613
 IR Inten    --     29.9584                46.7809                16.7793

                     67                     68                     69
                      A                      A                      A
 Frequencies --   1501.8163              1517.1249              1525.7694
 Red. masses --      1.5971                 1.1485                 1.7819
 Frc consts  --      2.1224                 1.5575                 2.4441
 IR Inten    --     51.0879                28.4137                11.8314

                     70                     71                     72
                      A                      A                      A
 Frequencies --   1529.1620              1534.7122              1544.7217
 Red. masses --      1.5433                 1.0731                 1.3122
 Frc consts  --      2.1262                 1.4891                 1.8448
 IR Inten    --     22.5061                 2.2967                19.4609

                     73                     74                     75
                      A                      A                      A
 Frequencies --   1584.6562              1598.7931              1631.8031
 Red. masses --      5.7461                 5.8286                 6.3997
 Frc consts  --      8.5015                 8.7780                10.0403
 IR Inten    --    122.2875               235.1353               577.5542

                     76                     77                     78
                      A                      A                      A
 Frequencies --   1634.9407              1671.6278              2291.4640
 Red. masses --      6.3192                 6.6503                13.9932
 Frc consts  --      9.9521                10.9488                43.2905
 IR Inten    --     17.3857                 1.8536               801.1411

                     79                     80                     81
                      A                      A                      A
 Frequencies --   3037.1364              3049.8341              3100.2548
 Red. masses --      1.0487                 1.0441                 1.0922
 Frc consts  --      5.6996                 5.7220                 6.1852
 IR Inten    --     29.7477                67.2251                20.4673

                     82                     83                     84
                      A                      A                      A
 Frequencies --   3122.0911              3157.7623              3168.6495
 Red. masses --      1.0950                 1.0968                 1.1012
 Frc consts  --      6.2887                 6.4439                 6.5140
 IR Inten    --     16.1764                 6.6353                 9.0231

                     85                     86                     87
                      A                      A                      A
 Frequencies --   3177.8484              3186.4861              3198.6801
 Red. masses --      1.0910                 1.0857                 1.0902
 Frc consts  --      6.4916                 6.4949                 6.5721
 IR Inten    --     30.6133                 1.1405                21.7054

                     88                     89                     90
                      A                      A                      A
 Frequencies --   3210.5834              3248.4218              3253.2902
 Red. masses --      1.0959                 1.0925                 1.0925
 Frc consts  --      6.6555                 6.7924                 6.8127
 IR Inten    --     32.9621                 2.8814                 5.0117

 - Thermochemistry -
 -------------------
 Temperature   298.150 Kelvin.  Pressure   1.00000 Atm.
 Atom     1 has atomic number  6 and mass  12.00000

 Molecular mass:   264.11234 amu.
 Principal axes and moments of inertia in atomic units:
                           1         2         3
     Eigenvalues --  2761.455128696.44991**********
           X            0.99999  -0.00086  -0.00409
           Y            0.00088   0.99999   0.00484
           Z            0.00408  -0.00484   0.99998
 This molecule is an asymmetric top.
 Rotational symmetry number  1.
 Warning -- assumption of classical behavior for rotation
           may cause significant error
 Rotational temperatures (Kelvin)      0.03137     0.00996     0.00770
 Rotational constants (GHZ):           0.65355     0.20753     0.16044
 Zero-point vibrational energy     649375.8 (Joules/Mol)
                                  155.20453 (Kcal/Mol)
 Warning -- explicit consideration of  26 degrees of freedom as
           vibrations may cause significant error
 Vibrational temperatures:     47.03    80.53    98.53   106.91   131.50
          (Kelvin)            183.47   189.73   213.64   245.29   276.97
                              319.75   368.38   386.49   445.27   468.76
                              510.40   526.15   641.74   651.83   670.33
                              722.90   737.98   813.21   823.63   838.69
                              883.17   937.89   950.03  1013.29  1030.71
                             1061.85  1093.13  1125.62  1150.27  1160.72
                             1225.48  1245.05  1288.14  1329.24  1346.05
                             1416.69  1426.87  1431.83  1447.02  1509.74
                             1539.64  1543.97  1629.16  1651.76  1663.32
                             1674.73  1706.64  1719.48  1781.74  1802.07
                             1853.13  1878.58  1965.44  1982.12  2018.08
                             2037.23  2052.66  2073.05  2094.24  2125.60
                             2141.87  2160.78  2182.80  2195.24  2200.12
                             2208.11  2222.51  2279.97  2300.31  2347.80
                             2352.32  2405.10  3296.91  4369.76  4388.03
                             4460.58  4491.99  4543.32  4558.98  4572.22
                             4584.64  4602.19  4619.31  4673.75  4680.76

 Zero-point correction=                           0.247334 (Hartree/Particle)
 Thermal correction to Energy=                    0.263929
 Thermal correction to Enthalpy=                  0.264873
 Thermal correction to Gibbs Free Energy=         0.202152
 Sum of electronic and zero-point Energies=           -869.008640
 Sum of electronic and thermal Energies=              -868.992045
 Sum of electronic and thermal Enthalpies=            -868.991101
 Sum of electronic and thermal Free Energies=         -869.053822

                     E (Thermal)             CV                S
                      KCal/Mol        Cal/Mol-Kelvin    Cal/Mol-Kelvin
 Total                  165.618             63.237            132.007
 Electronic               0.000              0.000              0.000
 Translational            0.889              2.981             42.613
 Rotational               0.889              2.981             33.957
 Vibrational            163.840             57.275             55.437
 Vibration     1          0.594              1.983              5.659
 Vibration     2          0.596              1.975              4.594
 Vibration     3          0.598              1.969              4.196
 Vibration     4          0.599              1.966              4.036
 Vibration     5          0.602              1.955              3.630
 Vibration     6          0.611              1.926              2.983
 Vibration     7          0.612              1.921              2.919
 Vibration     8          0.618              1.904              2.691
 Vibration     9          0.626              1.879              2.430
 Vibration    10          0.634              1.850              2.204
 Vibration    11          0.648              1.807              1.941
 Vibration    12          0.666              1.753              1.689
 Vibration    13          0.673              1.731              1.605
 Vibration    14          0.699              1.656              1.365
 Vibration    15          0.710              1.624              1.281
 Vibration    16          0.731              1.566              1.145
 Vibration    17          0.739              1.543              1.098
 Vibration    18          0.805              1.370              0.808
 Vibration    19          0.812              1.354              0.787
 Vibration    20          0.823              1.326              0.749
 Vibration    21          0.858              1.245              0.652
 Vibration    22          0.868              1.221              0.627
 Vibration    23          0.921              1.107              0.514
 Vibration    24          0.929              1.091              0.500
 Vibration    25          0.940              1.068              0.480
 Vibration    26          0.973              1.003              0.426

 Optimization completed.
    -- Stationary point found.
 Normal termination of Gaussian 16 at Sat Dec 12 15:31:28 2020.

 ----------------------------------------------------------------------
 # B3LYP/6-311++G(d,p) empiricaldispersion=gd3bj scf=xqc pop=npa geom=c
 heck
 ----------------------------------------------------------------------

 ----------------------------------------
 CID_150627601_JID_10353_Energie_neutraal
 ----------------------------------------
 Structure from the checkpoint file:  "JID_10353.chk"
 Charge =  0 Multiplicity = 1

 SCF Done:  E(RB3LYP) =  -869.473656643     A.U. after   16 cycles
 Normal termination of Gaussian 16 at Sat Dec 12 15:39:07 2020.

 ----------------------------------------------------------------------
 # B3LYP/6-311++G(d,p) empiricaldispersion=gd3bj scf=xqc pop=npa geom=c
 heck
 ----------------------------------------------------------------------

 --------------------------------------
 CID_150627601_JID_10353_Energie_kation
 --------------------------------------
 Structure from the checkpoint file:  "JID_10353.chk"
 Charge =  1 Multiplicity = 2

 SCF Done:  E(UB3LYP) =  -869.204729289     A.U. after   29 cycles
 Normal termination of Gaussian 16 at Sat Dec 12 15:58:55 2020.
 Gaussian 16:  ES64L-G16RevA.03 25-Dec-2016

 ----------------------------------------------------------------------
 # B3LYP/6-311++G(d,p) empiricaldispersion=gd3bj scf=xqc pop=npa geom=c
 heck
 ----------------------------------------------------------------------

 -------------------------------------
 CID_150627601_JID_10353_Energie_anion
 -------------------------------------
 Structure from the checkpoint file:  "JID_10353.chk"
 Charge = -1 Multiplicity = 2

                         Standard orientation:
 ---------------------------------------------------------------------
 Center     Atomic      Atomic             Coordinates (Angstroms)
 Number     Number       Type             X           Y           Z
 ---------------------------------------------------------------------
      1          6           0        1.601058   -2.985030   -0.376592
      2          6           0        1.717315   -1.513113   -0.138065
      3          6           0        0.727808   -0.546924    0.028457
      4          6           0        1.397094    0.737589    0.089392
      5          6           0        0.963701    2.064029    0.238322
      6          6           0        1.915233    3.076891    0.281676
      7          6           0        3.290356    2.796058    0.178305
      8          6           0        3.746442    1.490349    0.028899
      9          6           0        2.785592    0.477321   -0.009662
     10          7           0        2.953237   -0.896081   -0.142416
     11          6           0        4.239146   -1.534625   -0.336984
     12          6           0       -0.706116   -0.758289    0.140499
     13          7           0       -1.499733    0.284206   -0.189706
     14          6           0       -2.811870    0.102254   -0.086187
     15          7           0       -3.466161   -1.004350    0.294977
     16          6           0       -2.672104   -2.023759    0.645442
     17          6           0       -1.287395   -1.957947    0.603718
     18          7           0       -3.571778    1.240239   -0.433608
     19          7           0       -4.806564    1.108709   -0.350801
     20          7           0       -5.940971    1.140937   -0.325330
     21          1           0        1.789434   -3.574594    0.531260
     22          1           0        0.599931   -3.232583   -0.732951
     23          1           0        2.312012   -3.320661   -1.138872
     24          1           0       -0.095707    2.280319    0.293833
     25          1           0        1.591307    4.107998    0.389884
     26          1           0        4.008204    3.610636    0.208826
     27          1           0        4.806820    1.275195   -0.060350
     28          1           0        4.574640   -1.462156   -1.379137
     29          1           0        4.981506   -1.051076    0.303549
     30          1           0        4.182038   -2.586352   -0.054225
     31          1           0       -3.176902   -2.925974    0.986072
     32          1           0       -0.687050   -2.785200    0.956984
 ---------------------------------------------------------------------

 SCF Done:  E(UB3LYP) =  -869.484413892     A.U. after   33 cycles
 SCF Done:  E(UB3LYP) =  -869.484413892     a.u. after    2 cycles

 The electronic state is 2-A.
 Alpha  occ. eigenvalues --  -14.36241 -14.26526 -14.24299 -14.24044 -14.16114
 Alpha  occ. eigenvalues --  -14.15186 -10.13170 -10.11950 -10.08802 -10.07909
 Alpha  occ. eigenvalues --  -10.07126 -10.07083 -10.06428 -10.06287 -10.06130
 Alpha  occ. eigenvalues --  -10.05230 -10.05218 -10.04795 -10.03771 -10.03372
 Alpha  occ. eigenvalues --   -1.02546  -0.88118  -0.87568  -0.82478  -0.74754
 Alpha  occ. eigenvalues --   -0.73344  -0.69530  -0.65652  -0.64885  -0.63200
 Alpha  occ. eigenvalues --   -0.59101  -0.57676  -0.55368  -0.51870  -0.49252
 Alpha  occ. eigenvalues --   -0.47200  -0.46173  -0.42880  -0.40504  -0.39667
 Alpha  occ. eigenvalues --   -0.38975  -0.37979  -0.37274  -0.35782  -0.35347
 Alpha  occ. eigenvalues --   -0.34692  -0.33708  -0.33133  -0.32159  -0.31817
 Alpha  occ. eigenvalues --   -0.30792  -0.30159  -0.29295  -0.28473  -0.27816
 Alpha  occ. eigenvalues --   -0.27094  -0.26585  -0.24119  -0.22514  -0.21881
 Alpha  occ. eigenvalues --   -0.19764  -0.19617  -0.18570  -0.16953  -0.15150
 Alpha  occ. eigenvalues --   -0.11665  -0.11461  -0.11022  -0.08441   0.03909
 Alpha virt. eigenvalues --    0.05834   0.07550   0.08138   0.08398   0.08613
 Alpha virt. eigenvalues --    0.09087   0.09492   0.09671   0.10501   0.11276
 Alpha virt. eigenvalues --    0.11637   0.12291   0.12676   0.12842   0.13647

  Beta  occ. eigenvalues --  -14.36147 -14.26388 -14.24225 -14.24101 -14.16115
  Beta  occ. eigenvalues --  -14.14746 -10.13122 -10.11951 -10.08824 -10.07505
  Beta  occ. eigenvalues --  -10.07110 -10.07032 -10.06378 -10.06157 -10.05839
  Beta  occ. eigenvalues --  -10.05200 -10.05197 -10.04789 -10.03866 -10.03378
  Beta  occ. eigenvalues --   -1.02372  -0.87961  -0.87348  -0.82153  -0.74232
  Beta  occ. eigenvalues --   -0.73251  -0.69304  -0.65456  -0.64532  -0.63128
  Beta  occ. eigenvalues --   -0.59021  -0.57529  -0.55181  -0.51480  -0.49134
  Beta  occ. eigenvalues --   -0.47107  -0.45953  -0.42753  -0.40390  -0.39175
  Beta  occ. eigenvalues --   -0.38799  -0.37872  -0.37003  -0.35562  -0.35171
  Beta  occ. eigenvalues --   -0.34603  -0.33481  -0.33074  -0.31900  -0.31661
  Beta  occ. eigenvalues --   -0.30686  -0.30038  -0.28491  -0.28305  -0.27535
  Beta  occ. eigenvalues --   -0.26971  -0.26414  -0.24036  -0.22447  -0.21474
  Beta  occ. eigenvalues --   -0.19733  -0.18763  -0.17425  -0.16631  -0.14613
  Beta  occ. eigenvalues --   -0.11076  -0.10969  -0.10696  -0.07552
  Beta virt. eigenvalues --    0.05819   0.07520   0.08232   0.08456   0.08766
  Beta virt. eigenvalues --    0.09205   0.09405   0.09598   0.10422   0.10446
  Beta virt. eigenvalues --    0.11247   0.11596   0.12446   0.12679   0.12809

 Mulliken charges and spin densities:
               1          2
     1  C   -0.587925  -0.231443
     2  C    0.063857   0.308493
     3  C    0.437679  -0.071769
     4  C    0.750088   0.006328
     5  C   -0.678042   0.020636
     6  C   -0.695790   0.013726
     7  C   -0.364175   0.004972
     8  C   -0.623355   0.112233
     9  C    0.349178  -0.070173
    10  N    0.145794   0.038447
    11  C   -0.250125  -0.156430
    12  C   -0.278993   0.233934
    13  N    0.062838  -0.002831
    14  C   -0.201150   0.040962
    15  N   -0.211955   0.203259
    16  C   -0.397886   0.057279
    17  C    0.056210   0.086196
    18  N   -0.326475  -0.020778
    19  N    0.533893   0.023486
    20  N   -0.219889   0.076913
    21  H    0.067197   0.124979
    22  H    0.139674   0.012097
    23  H    0.110876   0.016162
    24  H    0.213100  -0.001439
    25  H    0.130306  -0.002154
    26  H    0.123539   0.003680
    27  H    0.079394   0.015755
    28  H    0.059211   0.126287
    29  H    0.133442   0.003650
    30  H    0.106903   0.039103
    31  H    0.135528  -0.006561
    32  H    0.137054  -0.005000
 Sum of Mulliken charges =  -1.00000   1.00000

 Dipole moment (field-independent basis, Debye):
    X=              7.5499    Y=             -1.9336    Z=              0.2814  Tot=              7.7986
 Quadrupole moment (field-independent basis, Debye-Ang):
   XX=           -179.8688   YY=           -133.1683   ZZ=           -127.4776
   XY=             -3.8646   XZ=             -0.3653   YZ=              1.6360

 Summary of Natural Population Analysis:

                                       Natural Population
                Natural  -----------------------------------------------
    Atom  No    Charge         Core      Valence    Rydberg      Total
 -----------------------------------------------------------------------
      C    1   -0.31141      0.99964     2.30712    0.00464     3.31141
      C    2    0.17035      0.99956     1.81612    0.01398     2.82965
      C    3   -0.03138      0.99944     2.02028    0.01166     3.03138
      C    4   -0.03956      0.99951     2.02556    0.01449     3.03956
      C    5   -0.09162      0.99953     2.08340    0.00869     3.09162
      C    6   -0.11545      0.99958     2.10645    0.00942     3.11545
      C    7   -0.12378      0.99959     2.11424    0.00994     3.12378
      C    8   -0.12005      0.99953     2.11266    0.00786     3.12005
      C    9    0.07601      0.99948     1.91299    0.01153     2.92399
      N   10   -0.20365      0.99958     2.69679    0.00727     3.70365
      C   11   -0.17389      0.99966     2.16797    0.00626     3.17389
      C   12    0.17016      0.99956     1.81192    0.01836     2.82984
      N   13   -0.26326      0.99965     2.75202    0.01159     3.76326
      C   14    0.28118      0.99957     1.70038    0.01886     2.71882
      N   15   -0.22858      0.99967     2.71658    0.01233     3.72858
      C   16    0.05620      0.99961     1.92991    0.01428     2.94380
      C   17   -0.15825      0.99953     2.15082    0.00791     3.15825
      N   18   -0.18519      0.99964     2.67185    0.01369     3.68519
      N   19    0.13869      0.99971     2.34510    0.01650     3.36131
      N   20   -0.02910      0.99981     2.51550    0.01378     3.52910
      H   21    0.10432      0.00000     0.39393    0.00175     0.39568
      H   22    0.11597      0.00000     0.38285    0.00118     0.38403
      H   23    0.09988      0.00000     0.39907    0.00105     0.40012
      H   24    0.11729      0.00000     0.38157    0.00114     0.38271
      H   25    0.09352      0.00000     0.40553    0.00096     0.40648
      H   26    0.09245      0.00000     0.40659    0.00096     0.40755
      H   27    0.09595      0.00000     0.40278    0.00128     0.40405
      H   28    0.09150      0.00000     0.40637    0.00213     0.40850
      H   29    0.09610      0.00000     0.40266    0.00124     0.40390
      H   30    0.09936      0.00000     0.39966    0.00098     0.40064
      H   31    0.07979      0.00000     0.41890    0.00131     0.42021
      H   32    0.09799      0.00000     0.40075    0.00126     0.40201
 =======================================================================
   * Total *    0.00155     19.99185    48.75832    0.24829    68.99845

 Normal termination of Gaussian 16 at Sat Dec 12 16:44:07 2020.
