 Gaussian 16, Revision A.03,

 -----------------------------------------------------------
 # opt freq B3LYP/6-31G(d) empiricaldispersion=gd3bj scf=xqc
 -----------------------------------------------------------

 -------------------------------
 CID_136746836_JID_9277_neutraal
 -------------------------------
 Symbolic Z-matrix:
 Charge =  0 Multiplicity = 1

 SCF Done:  E(RB3LYP) =  -860.888769526     A.U. after   14 cycles
 SCF Done:  E(RB3LYP) =  -860.899279345     A.U. after   12 cycles
 SCF Done:  E(RB3LYP) =  -860.901335730     A.U. after   12 cycles
 SCF Done:  E(RB3LYP) =  -860.902282253     A.U. after   12 cycles
 SCF Done:  E(RB3LYP) =  -860.902885281     A.U. after   12 cycles
 SCF Done:  E(RB3LYP) =  -860.903608032     A.U. after   12 cycles
 SCF Done:  E(RB3LYP) =  -860.903858330     A.U. after   12 cycles
 SCF Done:  E(RB3LYP) =  -860.905195962     A.U. after   11 cycles
 SCF Done:  E(RB3LYP) =  -860.906931449     A.U. after   14 cycles
 SCF Done:  E(RB3LYP) =  -860.907411378     A.U. after   13 cycles
 SCF Done:  E(RB3LYP) =  -860.907923297     A.U. after   10 cycles
 SCF Done:  E(RB3LYP) =  -860.907927480     A.U. after    9 cycles
 SCF Done:  E(RB3LYP) =  -860.907928669     A.U. after    9 cycles
 SCF Done:  E(RB3LYP) =  -860.907928993     A.U. after    8 cycles
 SCF Done:  E(RB3LYP) =  -860.907929229     A.U. after    8 cycles
 Optimization completed.
    -- Stationary point found.
 Normal termination of Gaussian 16 at Sun Dec 13 12:48:59 2020.

 --------------------------------------------------------------------
 #N Geom=AllCheck Guess=TCheck SCRF=Check GenChk RB3LYP/6-31G(d) Freq
 --------------------------------------------------------------------

 Structure from the checkpoint file:  "JID_9277.chk"
 -------------------------------
 CID_136746836_JID_9277_neutraal
 -------------------------------
 Charge =  0 Multiplicity = 1

 SCF Done:  E(RB3LYP) =  -860.907929229     A.U. after    1 cycles

  Exact polarizability: 219.707   0.976 181.419   1.940   5.014 115.745
 Approx polarizability: 275.370 -20.743 291.592   2.313  14.213 176.961

                      1                      2                      3
                      A                      A                      A
 Frequencies --     22.4990                36.6013                49.3527
 Red. masses --      4.3137                 4.3183                 3.5723
 Frc consts  --      0.0013                 0.0034                 0.0051
 IR Inten    --      2.7482                 0.6313                 1.0586

                      4                      5                      6
                      A                      A                      A
 Frequencies --     57.2176                72.0916               123.6461
 Red. masses --      4.8386                 3.2327                 2.9681
 Frc consts  --      0.0093                 0.0099                 0.0267
 IR Inten    --      1.7126                 1.9047                 0.5869

                      7                      8                      9
                      A                      A                      A
 Frequencies --    133.0183               148.8295               179.0841
 Red. masses --      3.6696                 3.3503                 4.9842
 Frc consts  --      0.0383                 0.0437                 0.0942
 IR Inten    --      0.6228                 1.5075                 0.5433

                     10                     11                     12
                      A                      A                      A
 Frequencies --    184.4606               187.8287               206.3016
 Red. masses --      5.1741                 5.1478                 2.4853
 Frc consts  --      0.1037                 0.1070                 0.0623
 IR Inten    --      1.0075                 7.1577                 0.6227

                     13                     14                     15
                      A                      A                      A
 Frequencies --    282.1275               294.1400               310.3393
 Red. masses --      4.5942                 2.6283                 1.3852
 Frc consts  --      0.2155                 0.1340                 0.0786
 IR Inten    --      0.7738                35.8758                61.9564

                     16                     17                     18
                      A                      A                      A
 Frequencies --    324.9668               329.8865               344.6232
 Red. masses --      2.9655                 4.6738                 2.2172
 Frc consts  --      0.1845                 0.2997                 0.1551
 IR Inten    --      2.6080                 6.8705                22.7340

                     19                     20                     21
                      A                      A                      A
 Frequencies --    382.9692               421.6833               430.7270
 Red. masses --      3.0797                 2.4989                 1.7104
 Frc consts  --      0.2661                 0.2618                 0.1870
 IR Inten    --      2.5947                 8.6598                65.3266

                     22                     23                     24
                      A                      A                      A
 Frequencies --    473.4920               510.1848               533.2208
 Red. masses --      1.6826                 3.9341                 4.2069
 Frc consts  --      0.2223                 0.6033                 0.7047
 IR Inten    --     41.6884                 3.7001                 2.4271

                     25                     26                     27
                      A                      A                      A
 Frequencies --    543.8818               559.3221               622.7712
 Red. masses --      3.5381                 3.7628                 2.3871
 Frc consts  --      0.6166                 0.6936                 0.5455
 IR Inten    --      3.2182                 6.6821                 1.0617

                     28                     29                     30
                      A                      A                      A
 Frequencies --    632.1876               640.3826               685.1846
 Red. masses --      1.3377                 3.2127                 3.4595
 Frc consts  --      0.3150                 0.7763                 0.9569
 IR Inten    --     61.7360                12.1907                 7.6679

                     31                     32                     33
                      A                      A                      A
 Frequencies --    711.4791               725.3647               766.8398
 Red. masses --      3.1574                 3.0620                 3.0313
 Frc consts  --      0.9417                 0.9492                 1.0502
 IR Inten    --      1.3575                12.6087                 0.7827

                     34                     35                     36
                      A                      A                      A
 Frequencies --    791.8689               800.7330               804.4229
 Red. masses --      2.6855                 2.0685                 1.1740
 Frc consts  --      0.9922                 0.7814                 0.4476
 IR Inten    --      5.6959                42.6391                 4.9692

                     37                     38                     39
                      A                      A                      A
 Frequencies --    821.2699               833.8473               848.2723
 Red. masses --      1.6331                 1.6652                 1.7241
 Frc consts  --      0.6490                 0.6822                 0.7309
 IR Inten    --      1.4629                 9.0029                 7.3261

                     40                     41                     42
                      A                      A                      A
 Frequencies --    872.2437               880.3618               921.0558
 Red. masses --      2.3729                 3.5172                 2.7788
 Frc consts  --      1.0637                 1.6061                 1.3889
 IR Inten    --      2.7333                35.0249                 1.0501

                     43                     44                     45
                      A                      A                      A
 Frequencies --    924.2086               967.1482               971.6600
 Red. masses --      1.8481                 4.7999                 1.6396
 Frc consts  --      0.9301                 2.6453                 0.9120
 IR Inten    --      0.2192                 0.4226                 1.7813

                     46                     47                     48
                      A                      A                      A
 Frequencies --    989.9947              1002.1494              1013.8380
 Red. masses --      1.9382                 2.1860                 3.4999
 Frc consts  --      1.1192                 1.2935                 2.1196
 IR Inten    --      1.0796                20.7366                14.2008

                     49                     50                     51
                      A                      A                      A
 Frequencies --   1037.5259              1057.5130              1076.7170
 Red. masses --      2.5270                 1.7057                 1.6240
 Frc consts  --      1.6027                 1.1239                 1.1093
 IR Inten    --     55.9475                 2.6811                61.8796

                     52                     53                     54
                      A                      A                      A
 Frequencies --   1077.7306              1090.5293              1099.7804
 Red. masses --      1.6106                 2.5045                 1.3319
 Frc consts  --      1.1022                 1.7549                 0.9491
 IR Inten    --      7.2938                71.1643                 3.2664

                     55                     56                     57
                      A                      A                      A
 Frequencies --   1108.9334              1125.3594              1125.8009
 Red. masses --      1.9442                 1.9595                 1.1715
 Frc consts  --      1.4086                 1.4621                 0.8748
 IR Inten    --      0.6992                27.3233                 3.9801

                     58                     59                     60
                      A                      A                      A
 Frequencies --   1146.4173              1156.3399              1193.3116
 Red. masses --      1.2784                 1.9307                 2.7105
 Frc consts  --      0.9899                 1.5211                 2.2741
 IR Inten    --     15.4225                 0.9861                22.4255

                     61                     62                     63
                      A                      A                      A
 Frequencies --   1221.0704              1223.9947              1227.5693
 Red. masses --      1.3531                 1.4220                 1.6195
 Frc consts  --      1.1887                 1.2551                 1.4379
 IR Inten    --      0.4145                24.0733                13.9096

                     64                     65                     66
                      A                      A                      A
 Frequencies --   1239.2451              1240.1992              1255.7367
 Red. masses --      1.8266                 1.8646                 2.3109
 Frc consts  --      1.6527                 1.6898                 2.1470
 IR Inten    --     23.5120                25.0706                18.6492

                     67                     68                     69
                      A                      A                      A
 Frequencies --   1288.2283              1299.9654              1312.4979
 Red. masses --      1.2980                 1.2520                 2.2262
 Frc consts  --      1.2691                 1.2465                 2.2595
 IR Inten    --     12.6216                 8.1239                84.1977

                     70                     71                     72
                      A                      A                      A
 Frequencies --   1327.4699              1347.2655              1361.8727
 Red. masses --      1.5278                 1.3732                 1.2738
 Frc consts  --      1.5863                 1.4686                 1.3919
 IR Inten    --     13.2351                 1.0909                 1.4099

                     73                     74                     75
                      A                      A                      A
 Frequencies --   1378.3707              1384.5541              1397.7638
 Red. masses --      1.6811                 1.3945                 1.4488
 Frc consts  --      1.8818                 1.5750                 1.6678
 IR Inten    --     14.3267                 3.7043                12.7909

                     76                     77                     78
                      A                      A                      A
 Frequencies --   1401.6151              1408.8328              1421.0064
 Red. masses --      1.4728                 1.3788                 1.5860
 Frc consts  --      1.7047                 1.6124                 1.8868
 IR Inten    --      4.5063                 2.8431                 5.3939

                     79                     80                     81
                      A                      A                      A
 Frequencies --   1426.0860              1436.7368              1455.5021
 Red. masses --      1.2970                 1.6479                 1.3163
 Frc consts  --      1.5541                 2.0041                 1.6430
 IR Inten    --      6.2356                21.8898                14.2110

                     82                     83                     84
                      A                      A                      A
 Frequencies --   1479.0283              1506.4167              1516.9883
 Red. masses --      1.0893                 1.9285                 1.0877
 Frc consts  --      1.4039                 2.5784                 1.4748
 IR Inten    --      2.9176                16.7321                 2.9783

                     85                     86                     87
                      A                      A                      A
 Frequencies --   1518.4165              1525.6335              1529.1385
 Red. masses --      1.0897                 1.9791                 1.1101
 Frc consts  --      1.4803                 2.7140                 1.5293
 IR Inten    --      0.6213                56.4018                 7.1347

                     88                     89                     90
                      A                      A                      A
 Frequencies --   1536.7698              1542.5117              1566.4114
 Red. masses --      1.0877                 1.0957                 2.0690
 Frc consts  --      1.5135                 1.5361                 2.9910
 IR Inten    --      6.5933                 1.0429               601.6739

                     91                     92                     93
                      A                      A                      A
 Frequencies --   1622.0755              1660.9370              1800.6083
 Red. masses --      5.9615                 7.1913                 8.8167
 Frc consts  --      9.2416                11.6886                16.8420
 IR Inten    --    271.5394               406.4190               743.5113

                     94                     95                     96
                      A                      A                      A
 Frequencies --   3018.1781              3027.2805              3032.7261
 Red. masses --      1.0695                 1.0689                 1.0668
 Frc consts  --      5.7399                 5.7716                 5.7811
 IR Inten    --     21.5009                19.8597                19.2313

                     97                     98                     99
                      A                      A                      A
 Frequencies --   3038.4213              3040.9302              3051.7362
 Red. masses --      1.0670                 1.0744                 1.0692
 Frc consts  --      5.8036                 5.8534                 5.8670
 IR Inten    --     14.8747                 3.7453                25.0072

                    100                    101                    102
                      A                      A                      A
 Frequencies --   3060.9844              3074.4928              3080.2302
 Red. masses --      1.0818                 1.0979                 1.0947
 Frc consts  --      5.9720                 6.1143                 6.1197
 IR Inten    --     49.8942                55.8992                64.2525

                    103                    104                    105
                      A                      A                      A
 Frequencies --   3084.7675              3094.6824              3100.4298
 Red. masses --      1.0988                 1.0964                 1.1010
 Frc consts  --      6.1604                 6.1868                 6.2355
 IR Inten    --     57.0974                39.6701                41.1669

                    106                    107                    108
                      A                      A                      A
 Frequencies --   3159.8457              3161.0491              3177.3315
 Red. masses --      1.0506                 1.0583                 1.0899
 Frc consts  --      6.1803                 6.2302                 6.4827
 IR Inten    --     14.2536                12.5087                11.8934

                    109                    110                    111
                      A                      A                      A
 Frequencies --   3244.9609              3255.0007              3257.1462
 Red. masses --      1.1200                 1.0907                 1.1169
 Frc consts  --      6.9483                 6.8089                 6.9815
 IR Inten    --      0.3563                 7.0490                 8.3946

                    112                    113                    114
                      A                      A                      A
 Frequencies --   3597.2487              3623.0924              3760.1519
 Red. masses --      1.0778                 1.0753                 1.0661
 Frc consts  --      8.2175                 8.3168                 8.8809
 IR Inten    --     45.7976                28.5451                12.2935

 - Thermochemistry -
 -------------------
 Temperature   298.150 Kelvin.  Pressure   1.00000 Atm.
 Atom     1 has atomic number  6 and mass  12.00000

 Molecular mass:   263.16338 amu.
 Principal axes and moments of inertia in atomic units:
                           1         2         3
     Eigenvalues --  3010.178009445.23963**********
           X            0.99971   0.02400  -0.00023
           Y           -0.02400   0.99971  -0.00315
           Z            0.00016   0.00316   1.00000
 This molecule is an asymmetric top.
 Rotational symmetry number  1.
 Warning -- assumption of classical behavior for rotation
           may cause significant error
 Rotational temperatures (Kelvin)      0.02877     0.00917     0.00743
 Rotational constants (GHZ):           0.59955     0.19107     0.15481
 Zero-point vibrational energy     911954.8 (Joules/Mol)
                                  217.96244 (Kcal/Mol)
 Warning -- explicit consideration of  26 degrees of freedom as
           vibrations may cause significant error
 Vibrational temperatures:     32.37    52.66    71.01    82.32   103.72
          (Kelvin)            177.90   191.38   214.13   257.66   265.40
                              270.24   296.82   405.92   423.20   446.51
                              467.55   474.63   495.84   551.01   606.71
                              619.72   681.25   734.04   767.19   782.52
                              804.74   896.03   909.58   921.37   985.83
                             1023.66  1043.64  1103.31  1139.32  1152.08
                             1157.39  1181.62  1199.72  1220.47  1254.96
                             1266.64  1325.19  1329.73  1391.51  1398.00
                             1424.38  1441.87  1458.69  1492.77  1521.53
                             1549.16  1550.61  1569.03  1582.34  1595.51
                             1619.14  1619.78  1649.44  1663.72  1716.91
                             1756.85  1761.06  1766.20  1783.00  1784.37
                             1806.72  1853.47  1870.36  1888.39  1909.93
                             1938.41  1959.43  1983.17  1992.06  2011.07
                             2016.61  2027.00  2044.51  2051.82  2067.14
                             2094.14  2127.99  2167.40  2182.61  2184.66
                             2195.05  2200.09  2211.07  2219.33  2253.72
                             2333.80  2389.72  2590.67  4342.49  4355.58
                             4363.42  4371.61  4375.22  4390.77  4404.07
                             4423.51  4431.76  4438.29  4452.56  4460.83
                             4546.31  4548.04  4571.47  4668.78  4683.22
                             4686.31  5175.64  5212.82  5410.02

 Zero-point correction=                           0.347345 (Hartree/Particle)
 Thermal correction to Energy=                    0.365310
 Thermal correction to Enthalpy=                  0.366254
 Thermal correction to Gibbs Free Energy=         0.300003
 Sum of electronic and zero-point Energies=           -860.560584
 Sum of electronic and thermal Energies=              -860.542620
 Sum of electronic and thermal Enthalpies=            -860.541676
 Sum of electronic and thermal Free Energies=         -860.607927

                     E (Thermal)             CV                S
                      KCal/Mol        Cal/Mol-Kelvin    Cal/Mol-Kelvin
 Total                  229.235             69.843            139.437
 Electronic               0.000              0.000              0.000
 Translational            0.889              2.981             42.602
 Rotational               0.889              2.981             34.160
 Vibrational            227.458             63.881             62.675
 Vibration     1          0.593              1.985              6.400
 Vibration     2          0.594              1.982              5.435
 Vibration     3          0.595              1.978              4.843
 Vibration     4          0.596              1.975              4.551
 Vibration     5          0.598              1.967              4.095
 Vibration     6          0.610              1.929              3.043
 Vibration     7          0.613              1.920              2.902
 Vibration     8          0.618              1.904              2.687
 Vibration     9          0.629              1.868              2.338
 Vibration    10          0.631              1.861              2.283
 Vibration    11          0.633              1.857              2.249
 Vibration    12          0.641              1.831              2.076
 Vibration    13          0.681              1.707              1.521
 Vibration    14          0.689              1.685              1.450
 Vibration    15          0.699              1.654              1.361
 Vibration    16          0.709              1.626              1.285
 Vibration    17          0.713              1.616              1.261
 Vibration    18          0.723              1.586              1.191
 Vibration    19          0.752              1.507              1.027
 Vibration    20          0.784              1.423              0.886
 Vibration    21          0.792              1.403              0.856
 Vibration    22          0.830              1.309              0.728
 Vibration    23          0.865              1.227              0.633
 Vibration    24          0.888              1.177              0.580
 Vibration    25          0.899              1.153              0.557
 Vibration    26          0.915              1.119              0.525

                           ! Non-Optimized Parameters !
 Normal termination of Gaussian 16 at Sun Dec 13 13:08:40 2020.

 ----------------------------------------------------------------------
 # B3LYP/6-311++G(d,p) empiricaldispersion=gd3bj scf=xqc pop=npa geom=c
 heck
 ----------------------------------------------------------------------

 ---------------------------------------
 CID_136746836_JID_9277_Energie_neutraal
 ---------------------------------------
 Structure from the checkpoint file:  "JID_9277.chk"
 Charge =  0 Multiplicity = 1

 SCF Done:  E(RB3LYP) =  -861.160142533     A.U. after   15 cycles
 Normal termination of Gaussian 16 at Sun Dec 13 13:18:13 2020.

 ----------------------------------------------------------------------
 # B3LYP/6-311++G(d,p) empiricaldispersion=gd3bj scf=xqc pop=npa geom=c
 heck
 ----------------------------------------------------------------------

 -------------------------------------
 CID_136746836_JID_9277_Energie_kation
 -------------------------------------
 Structure from the checkpoint file:  "JID_9277.chk"
 Charge =  1 Multiplicity = 2

 SCF Done:  E(UB3LYP) =  -860.877155684     A.U. after   24 cycles
 Normal termination of Gaussian 16 at Sun Dec 13 13:40:02 2020.
 Gaussian 16:  ES64L-G16RevA.03 25-Dec-2016

 ----------------------------------------------------------------------
 # B3LYP/6-311++G(d,p) empiricaldispersion=gd3bj scf=xqc pop=npa geom=c
 heck
 ----------------------------------------------------------------------

 ------------------------------------
 CID_136746836_JID_9277_Energie_anion
 ------------------------------------
 Structure from the checkpoint file:  "JID_9277.chk"
 Charge = -1 Multiplicity = 2

                         Standard orientation:
 ---------------------------------------------------------------------
 Center     Atomic      Atomic             Coordinates (Angstroms)
 Number     Number       Type             X           Y           Z
 ---------------------------------------------------------------------
      1          6           0        4.446234    0.834873   -0.586338
      2          6           0        3.302584    1.700878   -1.130592
      3          6           0        1.979726    0.924931   -1.167803
      4          6           0        1.642217    0.336044    0.216593
      5          6           0        2.771809   -0.566628    0.760940
      6          6           0        4.083135    0.244355    0.783885
      7          6           0        2.923733   -1.890796   -0.010295
      8          8           0        3.927981   -2.733386    0.542236
      9          7           0        0.361348   -0.351906    0.239336
     10          6           0       -0.852929    0.271544    0.208340
     11          6           0       -1.034982    1.632834    0.383750
     12          6           0       -2.351958    2.189155    0.384051
     13          8           0       -2.694171    3.357979    0.528898
     14          7           0       -3.360780    1.198288    0.177248
     15          6           0       -3.104711   -0.120927   -0.005377
     16          7           0       -1.894225   -0.610421    0.002963
     17          6           0       -4.263457   -1.017673   -0.219553
     18          6           0       -4.093881   -2.217062   -1.136063
     19          6           0       -4.200303   -2.429277    0.338488
     20          1           0        5.365706    1.426543   -0.503727
     21          1           0        4.662581    0.028341   -1.301357
     22          1           0        3.182430    2.582028   -0.483770
     23          1           0        3.547615    2.079059   -2.129996
     24          1           0        2.039348    0.112810   -1.904183
     25          1           0        1.158759    1.575956   -1.486747
     26          1           0        1.557857    1.172650    0.921757
     27          1           0        2.515519   -0.839804    1.792054
     28          1           0        4.897232   -0.380541    1.171085
     29          1           0        3.971094    1.065068    1.505033
     30          1           0        2.002426   -2.477652    0.062351
     31          1           0        3.108913   -1.711269   -1.079099
     32          1           0        4.788270   -2.337881    0.338052
     33          1           0        0.319878   -1.313901   -0.066561
     34          1           0       -0.211715    2.318485    0.527520
     35          1           0       -4.310025    1.552070    0.165293
     36          1           0       -5.232648   -0.526627   -0.218943
     37          1           0       -4.936950   -2.478676   -1.768397
     38          1           0       -3.114122   -2.326863   -1.588929
     39          1           0       -3.291922   -2.680885    0.875766
     40          1           0       -5.118419   -2.840890    0.746746
 ---------------------------------------------------------------------

 SCF Done:  E(UB3LYP) =  -861.154060097     A.U. after   33 cycles
 SCF Done:  E(UB3LYP) =  -861.154060097     a.u. after    2 cycles

 The electronic state is 2-A.
 Alpha  occ. eigenvalues --  -19.04070 -18.99619 -14.28151 -14.25429 -14.22477
 Alpha  occ. eigenvalues --  -10.18930 -10.18858 -10.17586 -10.13729 -10.13640
 Alpha  occ. eigenvalues --  -10.11658 -10.10319 -10.10276 -10.09860 -10.08960
 Alpha  occ. eigenvalues --  -10.08864 -10.08762 -10.08361 -10.07851  -0.95608
 Alpha  occ. eigenvalues --   -0.94232  -0.91301  -0.87333  -0.80966  -0.79079
 Alpha  occ. eigenvalues --   -0.75332  -0.69596  -0.68066  -0.66279  -0.61185
 Alpha  occ. eigenvalues --   -0.59892  -0.57075  -0.53233  -0.52990  -0.52657
 Alpha  occ. eigenvalues --   -0.51171  -0.49192  -0.47273  -0.46121  -0.43893
 Alpha  occ. eigenvalues --   -0.43195  -0.41626  -0.40265  -0.39997  -0.38155
 Alpha  occ. eigenvalues --   -0.37904  -0.37006  -0.36473  -0.34410  -0.33919
 Alpha  occ. eigenvalues --   -0.33188  -0.32876  -0.31623  -0.31351  -0.30686
 Alpha  occ. eigenvalues --   -0.30164  -0.29086  -0.28727  -0.27620  -0.26739
 Alpha  occ. eigenvalues --   -0.25441  -0.24954  -0.23936  -0.23488  -0.23155
 Alpha  occ. eigenvalues --   -0.21659  -0.21079  -0.19409  -0.17585  -0.17229
 Alpha  occ. eigenvalues --   -0.13702   0.03328
 Alpha virt. eigenvalues --    0.04253   0.05186   0.06378   0.06602   0.06850
 Alpha virt. eigenvalues --    0.07306   0.07570   0.08180   0.08586   0.09374
 Alpha virt. eigenvalues --    0.09667   0.09783   0.10056   0.11032   0.11986

  Beta  occ. eigenvalues --  -19.04033 -18.99617 -14.28132 -14.25427 -14.22476
  Beta  occ. eigenvalues --  -10.18918 -10.18859 -10.17579 -10.13715 -10.13639
  Beta  occ. eigenvalues --  -10.11633 -10.10304 -10.10259 -10.09858 -10.08956
  Beta  occ. eigenvalues --  -10.08854 -10.08739 -10.08326 -10.07846  -0.95595
  Beta  occ. eigenvalues --   -0.94153  -0.91287  -0.87317  -0.80943  -0.79043
  Beta  occ. eigenvalues --   -0.75307  -0.69575  -0.68039  -0.66248  -0.61145
  Beta  occ. eigenvalues --   -0.59847  -0.57045  -0.53205  -0.52940  -0.52617
  Beta  occ. eigenvalues --   -0.51129  -0.49149  -0.47228  -0.46088  -0.43864
  Beta  occ. eigenvalues --   -0.43131  -0.41591  -0.40225  -0.39948  -0.38121
  Beta  occ. eigenvalues --   -0.37871  -0.36978  -0.36446  -0.34382  -0.33901
  Beta  occ. eigenvalues --   -0.33172  -0.32847  -0.31594  -0.31322  -0.30644
  Beta  occ. eigenvalues --   -0.30136  -0.29060  -0.28704  -0.27594  -0.26705
  Beta  occ. eigenvalues --   -0.25407  -0.24918  -0.23905  -0.23455  -0.23125
  Beta  occ. eigenvalues --   -0.21623  -0.21074  -0.19374  -0.17577  -0.17211
  Beta  occ. eigenvalues --   -0.13678
  Beta virt. eigenvalues --    0.05285   0.05528   0.05879   0.06611   0.07074
  Beta virt. eigenvalues --    0.07158   0.07729   0.07878   0.08201   0.09002
  Beta virt. eigenvalues --    0.09570   0.09805   0.09939   0.10247   0.11275

 Mulliken charges and spin densities:
               1          2
     1  C    1.084240  -1.448064
     2  C   -0.879988   0.403164
     3  C    0.190052  -0.225228
     4  C   -0.497220  -0.264862
     5  C   -0.432213   0.689308
     6  C   -0.352775  -0.025706
     7  C    0.386435  -0.888771
     8  O   -0.253450   0.027457
     9  N    0.229550  -0.025260
    10  C   -0.413006   0.136634
    11  C    0.580814  -0.354447
    12  C   -0.279159   0.289023
    13  O   -0.387241   0.002673
    14  N   -0.226588   0.004819
    15  C    0.258981  -0.563645
    16  N   -0.085526  -0.022528
    17  C   -0.133087   0.420116
    18  C    0.462103  -0.968718
    19  C    0.512091  -1.014641
    20  H   -0.574931   0.778257
    21  H   -0.076218   0.202189
    22  H    0.166987  -0.037653
    23  H   -0.058567   0.232258
    24  H    0.082707   0.090612
    25  H    0.141118   0.023825
    26  H    0.144264   0.031454
    27  H    0.109941   0.109033
    28  H   -0.231335   0.401287
    29  H    0.069045   0.055741
    30  H    0.166935  -0.009083
    31  H   -0.128255   0.319983
    32  H   -0.051001   0.310980
    33  H    0.401831  -0.080975
    34  H    0.189179   0.017647
    35  H    0.213043   0.117914
    36  H   -1.127121   1.414027
    37  H   -0.154226   0.312344
    38  H    0.086288   0.075160
    39  H    0.103666   0.066261
    40  H   -0.237364   0.397420
 Sum of Mulliken charges =  -1.00000   1.00000

 Dipole moment (field-independent basis, Debye):
    X=              1.0592    Y=              0.0128    Z=              0.0775  Tot=              1.0621
 Quadrupole moment (field-independent basis, Debye-Ang):
   XX=           -270.3019   YY=           -174.3217   ZZ=           -141.4459
   XY=              9.4483   XZ=              1.7326   YZ=              0.2840

 Summary of Natural Population Analysis:

                                       Natural Population
                Natural  -----------------------------------------------
    Atom  No    Charge         Core      Valence    Rydberg      Total
 -----------------------------------------------------------------------
      C    1   -0.19343      0.99963     2.18410    0.00970     3.19343
      C    2   -0.19035      0.99963     2.18188    0.00885     3.19035
      C    3   -0.19712      0.99960     2.18921    0.00831     3.19712
      C    4   -0.00652      0.99956     1.99593    0.01103     3.00652
      C    5   -0.12214      0.99957     2.11122    0.01135     3.12214
      C    6   -0.19259      0.99961     2.18203    0.01094     3.19259
      C    7   -0.01003      0.99956     1.99740    0.01307     3.01003
      O    8   -0.36685      0.99990     3.36058    0.00637     4.36685
      N    9   -0.30329      0.99965     2.79335    0.01030     3.80329
      C   10    0.22086      0.99953     1.76608    0.01353     2.77914
      C   11   -0.22442      0.99947     2.21782    0.00712     3.22442
      C   12    0.31512      0.99962     1.66323    0.02202     2.68488
      O   13   -0.33016      0.99988     3.32447    0.00581     4.33016
      N   14   -0.29603      0.99963     2.78840    0.00800     3.79603
      C   15    0.25222      0.99959     1.73222    0.01597     2.74778
      N   16   -0.29474      0.99964     2.78654    0.00857     3.79474
      C   17   -0.14257      0.99957     2.12999    0.01302     3.14257
      C   18   -0.18441      0.99962     2.17546    0.00932     3.18441
      C   19   -0.18461      0.99962     2.17555    0.00944     3.18461
      H   20    0.10322      0.00000     0.39534    0.00145     0.39678
      H   21    0.09576      0.00000     0.40218    0.00206     0.40424
      H   22    0.09252      0.00000     0.40636    0.00112     0.40748
      H   23    0.10150      0.00000     0.39770    0.00080     0.39850
      H   24    0.09579      0.00000     0.40296    0.00125     0.40421
      H   25    0.10502      0.00000     0.39396    0.00102     0.39498
      H   26    0.09818      0.00000     0.39992    0.00190     0.40182
      H   27    0.10415      0.00000     0.39436    0.00150     0.39585
      H   28    0.10331      0.00000     0.39529    0.00140     0.39669
      H   29    0.09746      0.00000     0.40148    0.00107     0.40254
      H   30    0.08279      0.00000     0.41586    0.00135     0.41721
      H   31    0.07989      0.00000     0.41879    0.00132     0.42011
      H   32    0.23178      0.00000     0.26371    0.00451     0.26822
      H   33    0.19447      0.00000     0.30280    0.00274     0.30553
      H   34    0.11087      0.00000     0.38803    0.00110     0.38913
      H   35    0.20552      0.00000     0.29197    0.00250     0.29448
      H   36    0.11401      0.00000     0.38158    0.00441     0.38599
      H   37    0.10683      0.00000     0.39209    0.00108     0.39317
      H   38    0.11012      0.00000     0.38878    0.00110     0.38988
      H   39    0.11046      0.00000     0.38845    0.00110     0.38954
      H   40    0.10743      0.00000     0.39126    0.00131     0.39257
 =======================================================================
   * Total *   -0.00000     18.99287    51.76835    0.23877    71.00000

 Normal termination of Gaussian 16 at Sun Dec 13 15:19:21 2020.
