 Gaussian 16, Revision A.03,

 -----------------------------------------------------------
 # opt freq B3LYP/6-31G(d) empiricaldispersion=gd3bj scf=xqc
 -----------------------------------------------------------

 ------------------------------
 CID_43054581_JID_8529_neutraal
 ------------------------------
 Symbolic Z-matrix:
 Charge =  0 Multiplicity = 1

 SCF Done:  E(RB3LYP) =  -1237.32544739     A.U. after   15 cycles
 SCF Done:  E(RB3LYP) =  -1237.32792089     A.U. after   13 cycles
 SCF Done:  E(RB3LYP) =  -1237.32278886     A.U. after   14 cycles
 SCF Done:  E(RB3LYP) =  -1237.33045134     A.U. after   13 cycles
 SCF Done:  E(RB3LYP) =  -1237.33199045     A.U. after   13 cycles
 SCF Done:  E(RB3LYP) =  -1237.33311735     A.U. after   13 cycles
 SCF Done:  E(RB3LYP) =  -1237.33376487     A.U. after   12 cycles
 SCF Done:  E(RB3LYP) =  -1237.33412149     A.U. after   12 cycles
 SCF Done:  E(RB3LYP) =  -1237.33457148     A.U. after   12 cycles
 SCF Done:  E(RB3LYP) =  -1237.33502706     A.U. after   12 cycles
 SCF Done:  E(RB3LYP) =  -1237.33965311     A.U. after    9 cycles
 SCF Done:  E(RB3LYP) =  -1237.33965306     A.U. after    7 cycles
 SCF Done:  E(RB3LYP) =  -1237.33965317     A.U. after    7 cycles
 SCF Done:  E(RB3LYP) =  -1237.33965320     A.U. after    7 cycles
 Optimization completed.
    -- Stationary point found.
 Normal termination of Gaussian 16 at Fri Dec 11 20:41:20 2020.

 --------------------------------------------------------------------
 #N Geom=AllCheck Guess=TCheck SCRF=Check GenChk RB3LYP/6-31G(d) Freq
 --------------------------------------------------------------------

 Structure from the checkpoint file:  "JID_8529.chk"
 ------------------------------
 CID_43054581_JID_8529_neutraal
 ------------------------------
 Charge =  0 Multiplicity = 1

 SCF Done:  E(RB3LYP) =  -1237.33965320     A.U. after    1 cycles

  Exact polarizability: 186.656  -6.366 153.750  10.715  23.256 118.650
 Approx polarizability: 271.496 -13.954 245.513  13.175  45.146 191.416

                      1                      2                      3
                      A                      A                      A
 Frequencies --     41.0416                50.2409                77.1897
 Red. masses --      4.0662                 4.9216                 5.9637
 Frc consts  --      0.0040                 0.0073                 0.0209
 IR Inten    --      0.3033                 0.1285                 6.1773

                      4                      5                      6
                      A                      A                      A
 Frequencies --     78.6786                90.6824                95.1914
 Red. masses --      4.3975                 3.6311                 7.0009
 Frc consts  --      0.0160                 0.0176                 0.0374
 IR Inten    --      0.2514                 4.5213                 5.0726

                      7                      8                      9
                      A                      A                      A
 Frequencies --    121.2343               131.9239               151.1248
 Red. masses --      5.0990                 2.6787                 3.5300
 Frc consts  --      0.0442                 0.0275                 0.0475
 IR Inten    --      0.9888                 6.8115                 0.8567

                     10                     11                     12
                      A                      A                      A
 Frequencies --    159.7048               190.2289               193.7793
 Red. masses --      1.4295                 2.5389                 1.6030
 Frc consts  --      0.0215                 0.0541                 0.0355
 IR Inten    --      2.6746                 0.8515                 2.3197

                     13                     14                     15
                      A                      A                      A
 Frequencies --    210.6175               228.1145               254.5352
 Red. masses --      2.4853                 3.1541                 1.0678
 Frc consts  --      0.0650                 0.0967                 0.0408
 IR Inten    --      5.4282                 1.8016                 0.1511

                     16                     17                     18
                      A                      A                      A
 Frequencies --    283.4133               300.7674               314.2961
 Red. masses --      5.8562                 4.5977                 3.0663
 Frc consts  --      0.2771                 0.2450                 0.1785
 IR Inten    --      1.5161                 2.3393                22.9357

                     19                     20                     21
                      A                      A                      A
 Frequencies --    335.7691               368.4472               412.2272
 Red. masses --      3.6706                 4.0406                 1.9353
 Frc consts  --      0.2438                 0.3232                 0.1938
 IR Inten    --      0.3284                 0.7792                30.0181

                     22                     23                     24
                      A                      A                      A
 Frequencies --    436.8598               450.1565               462.5834
 Red. masses --      4.2696                 3.0375                 2.5768
 Frc consts  --      0.4801                 0.3627                 0.3249
 IR Inten    --     28.1780                18.5066                14.5095

                     25                     26                     27
                      A                      A                      A
 Frequencies --    478.2790               489.9354               520.2490
 Red. masses --      2.8993                 5.6022                 4.6882
 Frc consts  --      0.3908                 0.7923                 0.7476
 IR Inten    --     33.5662                21.7173                40.9839

                     28                     29                     30
                      A                      A                      A
 Frequencies --    536.1333               558.5223               576.0106
 Red. masses --      5.6412                 4.0326                 5.2653
 Frc consts  --      0.9554                 0.7412                 1.0293
 IR Inten    --     30.1249                41.7895                 6.5491

                     31                     32                     33
                      A                      A                      A
 Frequencies --    600.1354               663.1550               703.4840
 Red. masses --      5.3579                 6.4927                 5.7908
 Frc consts  --      1.1370                 1.6823                 1.6885
 IR Inten    --      1.9269                 4.7940                19.1016

                     34                     35                     36
                      A                      A                      A
 Frequencies --    742.0610               746.4986               787.3248
 Red. masses --      2.2103                 4.1688                 1.9496
 Frc consts  --      0.7171                 1.3687                 0.7121
 IR Inten    --     24.2180                43.7560                43.7594

                     37                     38                     39
                      A                      A                      A
 Frequencies --    798.6249               865.0560               880.7800
 Red. masses --      4.9101                 4.4988                 1.3591
 Frc consts  --      1.8451                 1.9835                 0.6212
 IR Inten    --     19.1394                12.4415                 0.2015

                     40                     41                     42
                      A                      A                      A
 Frequencies --    943.4922               960.4558               978.6732
 Red. masses --      1.5755                 2.7607                 4.4983
 Frc consts  --      0.8263                 1.5005                 2.5385
 IR Inten    --      1.0737                 3.1181                28.3588

                     43                     44                     45
                      A                      A                      A
 Frequencies --    986.0543              1003.1044              1011.8749
 Red. masses --      1.2693                 1.4581                 1.7582
 Frc consts  --      0.7271                 0.8645                 1.0606
 IR Inten    --      0.0241                51.5623                11.9466

                     46                     47                     48
                      A                      A                      A
 Frequencies --   1021.6440              1022.9595              1080.3690
 Red. masses --      1.4280                 1.5953                 1.6345
 Frc consts  --      0.8782                 0.9836                 1.1240
 IR Inten    --      4.2936                 1.5144                12.6529

                     49                     50                     51
                      A                      A                      A
 Frequencies --   1083.8750              1098.3596              1122.1164
 Red. masses --      2.0437                 5.6697                 5.1617
 Frc consts  --      1.4145                 4.0300                 3.8293
 IR Inten    --      3.4037                35.3929                10.3049

                     52                     53                     54
                      A                      A                      A
 Frequencies --   1136.9083              1155.6785              1186.4281
 Red. masses --      7.3961                 1.9424                 1.2675
 Frc consts  --      5.6325                 1.5285                 1.0512
 IR Inten    --    184.0062                43.0691                 3.1975

                     55                     56                     57
                      A                      A                      A
 Frequencies --   1197.5681              1225.1480              1229.4536
 Red. masses --      1.0955                 2.8213                 1.5629
 Frc consts  --      0.9257                 2.4950                 1.3919
 IR Inten    --      0.2823                10.4369                 2.2000

                     58                     59                     60
                      A                      A                      A
 Frequencies --   1255.3444              1278.4863              1318.4717
 Red. masses --      1.8112                 1.6914                 1.5175
 Frc consts  --      1.6816                 1.6289                 1.5543
 IR Inten    --     12.2456                 8.7032                 1.1352

                     61                     62                     63
                      A                      A                      A
 Frequencies --   1336.4716              1350.7229              1377.1532
 Red. masses --     10.6994                 6.5041                 1.2064
 Frc consts  --     11.2597                 6.9915                 1.3481
 IR Inten    --    227.0158                 5.8706                30.6490

                     64                     65                     66
                      A                      A                      A
 Frequencies --   1382.5269              1418.2473              1440.4713
 Red. masses --      1.3830                 1.4388                 1.2475
 Frc consts  --      1.5575                 1.7051                 1.5251
 IR Inten    --     60.3503                 6.4046                 2.1397

                     67                     68                     69
                      A                      A                      A
 Frequencies --   1467.7304              1484.8930              1491.0511
 Red. masses --      2.3080                 1.0517                 1.8001
 Frc consts  --      2.9294                 1.3663                 2.3580
 IR Inten    --     48.8732                 0.6455                 2.1331

                     70                     71                     72
                      A                      A                      A
 Frequencies --   1495.6648              1501.0424              1505.1139
 Red. masses --      1.3458                 1.0581                 1.0891
 Frc consts  --      1.7738                 1.4046                 1.4536
 IR Inten    --     16.5721                 6.4317                 4.4797

                     73                     74                     75
                      A                      A                      A
 Frequencies --   1508.3562              1525.1852              1530.0401
 Red. masses --      1.0722                 1.0774                 1.2403
 Frc consts  --      1.4372                 1.4767                 1.7107
 IR Inten    --      7.3322                10.2799                12.9009

                     76                     77                     78
                      A                      A                      A
 Frequencies --   1539.6502              1546.3515              1641.4640
 Red. masses --      1.2528                 1.6853                 5.8250
 Frc consts  --      1.7497                 2.3744                 9.2471
 IR Inten    --     14.3088                27.2062                 2.3345

                     79                     80                     81
                      A                      A                      A
 Frequencies --   1662.1598              1780.6278              3042.1491
 Red. masses --      5.8039                 8.5423                 1.0420
 Frc consts  --      9.4475                15.9577                 5.6817
 IR Inten    --      1.4997               273.5760                60.2925

                     82                     83                     84
                      A                      A                      A
 Frequencies --   3064.5425              3064.7608              3078.3549
 Red. masses --      1.0568                 1.0415                 1.0287
 Frc consts  --      5.8474                 5.7635                 5.7436
 IR Inten    --      8.1692                29.0290                 7.3902

                     85                     86                     87
                      A                      A                      A
 Frequencies --   3131.4224              3137.1837              3137.9507
 Red. masses --      1.1008                 1.0951                 1.1002
 Frc consts  --      6.3596                 6.3502                 6.3831
 IR Inten    --      5.9056                41.0352                 4.4427

                     88                     89                     90
                      A                      A                      A
 Frequencies --   3140.0763              3182.9140              3184.5260
 Red. masses --      1.0995                 1.1069                 1.0862
 Frc consts  --      6.3871                 6.6069                 6.4903
 IR Inten    --      2.6268                 4.9639                 5.3829

                     91                     92                     93
                      A                      A                      A
 Frequencies --   3189.2627              3190.9758              3191.9893
 Red. masses --      1.1028                 1.1080                 1.0938
 Frc consts  --      6.6088                 6.6469                 6.5660
 IR Inten    --      3.1698                 1.1732                 3.4755

                     94                     95                     96
                      A                      A                      A
 Frequencies --   3201.3832              3214.2704              3560.4975
 Red. masses --      1.0927                 1.0976                 1.0780
 Frc consts  --      6.5984                 6.6816                 8.0519
 IR Inten    --     29.6178                21.0892                26.6738

 - Thermochemistry -
 -------------------
 Temperature   298.150 Kelvin.  Pressure   1.00000 Atm.
 Atom     1 has atomic number  6 and mass  12.00000

 Molecular mass:   272.08308 amu.
 Principal axes and moments of inertia in atomic units:
                           1         2         3
     Eigenvalues --  3078.526795954.085556558.65901
           X            0.99993   0.00472   0.01093
           Y           -0.00589   0.99405   0.10874
           Z           -0.01036  -0.10879   0.99401
 This molecule is an asymmetric top.
 Rotational symmetry number  1.
 Warning -- assumption of classical behavior for rotation
           may cause significant error
 Rotational temperatures (Kelvin)      0.02813     0.01455     0.01321
 Rotational constants (GHZ):           0.58624     0.30311     0.27517
 Zero-point vibrational energy     714043.2 (Joules/Mol)
                                  170.66043 (Kcal/Mol)
 Warning -- explicit consideration of  31 degrees of freedom as
           vibrations may cause significant error
 Vibrational temperatures:     59.05    72.29   111.06   113.20   130.47
          (Kelvin)            136.96   174.43   189.81   217.43   229.78
                              273.70   278.81   303.03   328.21   366.22
                              407.77   432.74   452.20   483.10   530.11
                              593.10   628.54   647.67   665.55   688.14
                              704.91   748.52   771.38   803.59   828.75
                              863.46   954.13  1012.16  1067.66  1074.05
                             1132.78  1149.04  1244.62  1267.25  1357.47
                             1381.88  1408.09  1418.71  1443.24  1455.86
                             1469.92  1471.81  1554.41  1559.45  1580.29
                             1614.48  1635.76  1662.76  1707.01  1723.03
                             1762.71  1768.91  1806.16  1839.46  1896.99
                             1922.88  1943.39  1981.42  1989.15  2040.54
                             2072.52  2111.74  2136.43  2145.29  2151.93
                             2159.67  2165.52  2170.19  2194.40  2201.39
                             2215.21  2224.85  2361.70  2391.48  2561.93
                             4376.97  4409.19  4409.51  4429.07  4505.42
                             4513.71  4514.81  4517.87  4579.50  4581.82
                             4588.64  4591.10  4592.56  4606.08  4624.62
                             5122.76

 Zero-point correction=                           0.271965 (Hartree/Particle)
 Thermal correction to Energy=                    0.290705
 Thermal correction to Enthalpy=                  0.291649
 Thermal correction to Gibbs Free Energy=         0.225272
 Sum of electronic and zero-point Energies=          -1237.067688
 Sum of electronic and thermal Energies=             -1237.048949
 Sum of electronic and thermal Enthalpies=           -1237.048004
 Sum of electronic and thermal Free Energies=        -1237.114381

                     E (Thermal)             CV                S
                      KCal/Mol        Cal/Mol-Kelvin    Cal/Mol-Kelvin
 Total                  182.420             69.556            139.702
 Electronic               0.000              0.000              0.000
 Translational            0.889              2.981             42.702
 Rotational               0.889              2.981             33.152
 Vibrational            180.642             63.595             63.848
 Vibration     1          0.594              1.981              5.208
 Vibration     2          0.595              1.977              4.808
 Vibration     3          0.599              1.964              3.961
 Vibration     4          0.600              1.964              3.924
 Vibration     5          0.602              1.956              3.645
 Vibration     6          0.603              1.953              3.550
 Vibration     7          0.609              1.931              3.081
 Vibration     8          0.612              1.921              2.918
 Vibration     9          0.619              1.901              2.658
 Vibration    10          0.622              1.892              2.553
 Vibration    11          0.634              1.853              2.226
 Vibration    12          0.635              1.849              2.191
 Vibration    13          0.643              1.825              2.038
 Vibration    14          0.651              1.798              1.894
 Vibration    15          0.665              1.755              1.699
 Vibration    16          0.682              1.704              1.513
 Vibration    17          0.693              1.672              1.413
 Vibration    18          0.702              1.646              1.340
 Vibration    19          0.717              1.604              1.232
 Vibration    20          0.741              1.537              1.086
 Vibration    21          0.776              1.444              0.919
 Vibration    22          0.797              1.390              0.837
 Vibration    23          0.809              1.361              0.795
 Vibration    24          0.820              1.333              0.759
 Vibration    25          0.835              1.298              0.715
 Vibration    26          0.846              1.272              0.684
 Vibration    27          0.875              1.205              0.609
 Vibration    28          0.891              1.170              0.574
 Vibration    29          0.914              1.121              0.527
 Vibration    30          0.932              1.083              0.493
 Vibration    31          0.958              1.032              0.449

 Optimization completed.
    -- Stationary point found.
 Normal termination of Gaussian 16 at Fri Dec 11 20:58:07 2020.

 ----------------------------------------------------------------------
 # B3LYP/6-311++G(d,p) empiricaldispersion=gd3bj scf=xqc pop=npa geom=c
 heck
 ----------------------------------------------------------------------

 --------------------------------------
 CID_43054581_JID_8529_Energie_neutraal
 --------------------------------------
 Structure from the checkpoint file:  "JID_8529.chk"
 Charge =  0 Multiplicity = 1

 SCF Done:  E(RB3LYP) =  -1237.60846654     A.U. after   16 cycles
 Normal termination of Gaussian 16 at Fri Dec 11 21:04:35 2020.

 ----------------------------------------------------------------------
 # B3LYP/6-311++G(d,p) empiricaldispersion=gd3bj scf=xqc pop=npa geom=c
 heck
 ----------------------------------------------------------------------

 ------------------------------------
 CID_43054581_JID_8529_Energie_kation
 ------------------------------------
 Structure from the checkpoint file:  "JID_8529.chk"
 Charge =  1 Multiplicity = 2

 SCF Done:  E(UB3LYP) =  -1237.29178773     A.U. after   33 cycles
 SCF Done:  E(UB3LYP) =  -1237.29178773     a.u. after    1 cycles
 Normal termination of Gaussian 16 at Fri Dec 11 21:22:53 2020.
 Gaussian 16:  ES64L-G16RevA.03 25-Dec-2016

 ----------------------------------------------------------------------
 # B3LYP/6-311++G(d,p) empiricaldispersion=gd3bj scf=xqc pop=npa geom=c
 heck
 ----------------------------------------------------------------------

 -----------------------------------
 CID_43054581_JID_8529_Energie_anion
 -----------------------------------
 Structure from the checkpoint file:  "JID_8529.chk"
 Charge = -1 Multiplicity = 2

                         Standard orientation:
 ---------------------------------------------------------------------
 Center     Atomic      Atomic             Coordinates (Angstroms)
 Number     Number       Type             X           Y           Z
 ---------------------------------------------------------------------
      1          6           0       -1.374589    2.061579    1.201256
      2          6           0       -2.118559    1.110427    0.303216
      3          6           0       -3.493713    1.246624    0.084855
      4          6           0       -4.193321    0.366717   -0.740379
      5          6           0       -3.521924   -0.679234   -1.371799
      6          6           0       -2.152567   -0.834000   -1.166553
      7          6           0       -1.456541    0.050224   -0.338165
      8          7           0       -0.031922   -0.095391   -0.144679
      9          6           0        0.751245   -0.095218   -1.396221
     10          6           0        2.263383   -0.264375   -1.233690
     11          8           0        2.815691   -1.344667   -1.407393
     12          7           0        2.980080    0.870254   -1.025697
     13          8           0        2.386776    2.091849   -0.748495
     14          6           0        2.428700    2.370756    0.664734
     15         16           0        0.442994   -1.114481    1.136481
     16          8           0        1.809755   -0.726199    1.498597
     17          8           0       -0.633883   -1.050056    2.123880
     18          6           0        0.513518   -2.779279    0.450965
     19          1           0       -2.012103    2.902154    1.490267
     20          1           0       -1.040562    1.550220    2.109784
     21          1           0       -0.482961    2.452649    0.702133
     22          1           0       -4.022132    2.060957    0.573302
     23          1           0       -5.260700    0.500249   -0.891036
     24          1           0       -4.056840   -1.370619   -2.015931
     25          1           0       -1.620927   -1.645068   -1.655769
     26          1           0        0.448525   -0.911271   -2.061562
     27          1           0        0.536931    0.857345   -1.884709
     28          1           0        3.979114    0.806027   -0.855799
     29          1           0        1.895570    3.317185    0.777435
     30          1           0        1.948594    1.573174    1.232797
     31          1           0        3.468046    2.494968    0.996443
     32          1           0       -0.481265   -3.046394    0.090289
     33          1           0        1.261376   -2.783683   -0.345358
     34          1           0        0.813818   -3.442978    1.264623
 ---------------------------------------------------------------------

 SCF Done:  E(UB3LYP) =  -1237.59879759     A.U. after   33 cycles
 SCF Done:  E(UB3LYP) =  -1237.59879759     a.u. after    1 cycles

 The electronic state is 2-A.
 Alpha  occ. eigenvalues --  -88.95929 -19.08952 -19.01689 -19.01674 -19.00646
 Alpha  occ. eigenvalues --  -14.29610 -14.25152 -10.19258 -10.12901 -10.12168
 Alpha  occ. eigenvalues --  -10.10248 -10.09763 -10.07946 -10.07054 -10.06889
 Alpha  occ. eigenvalues --  -10.06509 -10.06327 -10.06291  -8.02173  -5.98444
 Alpha  occ. eigenvalues --   -5.98410  -5.98245  -1.02149  -1.01821  -0.94954
 Alpha  occ. eigenvalues --   -0.91022  -0.84754  -0.77639  -0.74911  -0.67588
 Alpha  occ. eigenvalues --   -0.67139  -0.65420  -0.62464  -0.60418  -0.58449
 Alpha  occ. eigenvalues --   -0.54106  -0.51958  -0.49213  -0.47271  -0.45290
 Alpha  occ. eigenvalues --   -0.43683  -0.42179  -0.40196  -0.38854  -0.38189
 Alpha  occ. eigenvalues --   -0.37853  -0.36884  -0.36216  -0.35096  -0.34561
 Alpha  occ. eigenvalues --   -0.33781  -0.33540  -0.32650  -0.32194  -0.31587
 Alpha  occ. eigenvalues --   -0.30996  -0.30483  -0.28907  -0.28071  -0.25966
 Alpha  occ. eigenvalues --   -0.25323  -0.24856  -0.24255  -0.22807  -0.21860
 Alpha  occ. eigenvalues --   -0.21056  -0.20900  -0.18275  -0.17339  -0.16373
 Alpha  occ. eigenvalues --   -0.15010  -0.14234   0.04426
 Alpha virt. eigenvalues --    0.06076   0.06799   0.07185   0.07870   0.08392
 Alpha virt. eigenvalues --    0.08619   0.09003   0.09208   0.10000   0.10464
 Alpha virt. eigenvalues --    0.11161   0.11342   0.12060   0.13064   0.13397

  Beta  occ. eigenvalues --  -88.95902 -19.08949 -19.01688 -19.01658 -19.00631
  Beta  occ. eigenvalues --  -14.29586 -14.25145 -10.19233 -10.12880 -10.12133
  Beta  occ. eigenvalues --  -10.10192 -10.09586 -10.07947 -10.07082 -10.06804
  Beta  occ. eigenvalues --  -10.06460 -10.06286 -10.06163  -8.02141  -5.98405
  Beta  occ. eigenvalues --   -5.98385  -5.98220  -1.02114  -1.01789  -0.94923
  Beta  occ. eigenvalues --   -0.90993  -0.84613  -0.77593  -0.74746  -0.67465
  Beta  occ. eigenvalues --   -0.67034  -0.65229  -0.62291  -0.60361  -0.58363
  Beta  occ. eigenvalues --   -0.53952  -0.51767  -0.49138  -0.47136  -0.45251
  Beta  occ. eigenvalues --   -0.43617  -0.42089  -0.40150  -0.38800  -0.38142
  Beta  occ. eigenvalues --   -0.37763  -0.36809  -0.36137  -0.35052  -0.34496
  Beta  occ. eigenvalues --   -0.33733  -0.33463  -0.32599  -0.32124  -0.31499
  Beta  occ. eigenvalues --   -0.30948  -0.30417  -0.28862  -0.28029  -0.25586
  Beta  occ. eigenvalues --   -0.25213  -0.24751  -0.24198  -0.22770  -0.21834
  Beta  occ. eigenvalues --   -0.20989  -0.20851  -0.18225  -0.17206  -0.16315
  Beta  occ. eigenvalues --   -0.14474  -0.13641
  Beta virt. eigenvalues --    0.06646   0.07127   0.07496   0.07831   0.08345
  Beta virt. eigenvalues --    0.08739   0.08935   0.09237   0.09407   0.10212
  Beta virt. eigenvalues --    0.10745   0.11258   0.11521   0.12238   0.13208

 Mulliken charges and spin densities:
               1          2
     1  C   -0.232944  -0.322945
     2  C   -0.122153   0.556895
     3  C   -0.355943  -0.056386
     4  C    0.130321  -0.375138
     5  C    0.071264  -0.538302
     6  C    0.077423  -0.008019
     7  C   -0.791957   0.428764
     8  N    0.325937  -0.020235
     9  C    0.055381  -0.190548
    10  C   -0.021584  -0.109293
    11  O   -0.277215   0.017839
    12  N   -0.295773  -0.010599
    13  O    0.026798   0.024498
    14  C    0.339893  -0.695273
    15  S    0.030871   0.097362
    16  O   -0.050025  -0.002338
    17  O   -0.053782   0.016366
    18  C    0.036674  -0.617046
    19  H    0.026921   0.134991
    20  H    0.137405   0.033637
    21  H    0.253937  -0.112261
    22  H    0.032418   0.081725
    23  H   -0.018190   0.141292
    24  H   -0.253884   0.413010
    25  H    0.018941   0.112624
    26  H    0.181737  -0.000819
    27  H    0.160756   0.036657
    28  H    0.002679   0.311336
    29  H   -0.144449   0.293863
    30  H    0.335435  -0.088742
    31  H   -0.497762   0.650136
    32  H   -0.194660   0.401425
    33  H    0.136771   0.106499
    34  H   -0.071242   0.289026
 Sum of Mulliken charges =  -1.00000   1.00000

 Dipole moment (field-independent basis, Debye):
    X=             -1.3914    Y=              1.6702    Z=             -1.4183  Tot=              2.5956
 Quadrupole moment (field-independent basis, Debye-Ang):
   XX=           -183.4638   YY=           -154.8819   ZZ=           -144.4537
   XY=             -7.4339   XZ=             -4.0226   YZ=             -0.7567

 Summary of Natural Population Analysis:

                                       Natural Population
                Natural  -----------------------------------------------
    Atom  No    Charge         Core      Valence    Rydberg      Total
 -----------------------------------------------------------------------
      C    1   -0.29498      0.99963     2.29038    0.00497     3.29498
      C    2   -0.00404      0.99946     1.99651    0.00807     3.00404
      C    3   -0.09554      0.99952     2.08710    0.00892     3.09554
      C    4   -0.07089      0.99957     2.06187    0.00946     3.07089
      C    5   -0.11256      0.99957     2.10277    0.01022     3.11256
      C    6   -0.09126      0.99951     2.08274    0.00902     3.09126
      C    7    0.09140      0.99940     1.89638    0.01283     2.90860
      N    8   -0.37420      0.99968     2.85835    0.01617     3.87420
      C    9   -0.12159      0.99955     2.11228    0.00976     3.12159
      C   10    0.32919      0.99967     1.64781    0.02334     2.67081
      O   11   -0.31715      0.99987     3.31153    0.00575     4.31715
      N   12   -0.15116      0.99960     2.63802    0.01355     3.65116
      O   13   -0.20961      0.99990     3.19976    0.00995     4.20961
      C   14   -0.10508      0.99960     2.09592    0.00956     3.10508
      S   15    1.10671      4.99926     1.79360    0.10044     6.89329
      O   16   -0.46523      0.99990     3.45982    0.00550     4.46523
      O   17   -0.45888      0.99990     3.45374    0.00524     4.45888
      C   18   -0.39867      0.99960     2.38902    0.01006     3.39867
      H   19    0.09644      0.00000     0.40270    0.00085     0.40356
      H   20    0.11316      0.00000     0.38545    0.00139     0.38684
      H   21    0.10551      0.00000     0.39311    0.00138     0.39449
      H   22    0.09480      0.00000     0.40427    0.00093     0.40520
      H   23    0.09480      0.00000     0.40442    0.00078     0.40520
      H   24    0.09880      0.00000     0.40027    0.00093     0.40120
      H   25    0.09801      0.00000     0.40024    0.00175     0.40199
      H   26    0.09926      0.00000     0.39946    0.00128     0.40074
      H   27    0.11546      0.00000     0.38340    0.00113     0.38454
      H   28    0.18983      0.00000     0.30715    0.00302     0.31017
      H   29    0.09027      0.00000     0.40846    0.00127     0.40973
      H   30    0.10230      0.00000     0.39577    0.00193     0.39770
      H   31    0.08255      0.00000     0.41533    0.00212     0.41745
      H   32    0.11738      0.00000     0.38102    0.00160     0.38262
      H   33    0.12689      0.00000     0.37194    0.00117     0.37311
      H   34    0.11808      0.00000     0.38086    0.00107     0.38192
 =======================================================================
   * Total *    0.00000     21.99318    49.71143    0.29539    72.00000

 Normal termination of Gaussian 16 at Fri Dec 11 21:41:48 2020.
