 Gaussian 16, Revision A.03,

 -----------------------------------------------------------
 # opt freq B3LYP/6-31G(d) empiricaldispersion=gd3bj scf=xqc
 -----------------------------------------------------------

 -------------------------------
 CID_148345597_JID_5629_neutraal
 -------------------------------
 Symbolic Z-matrix:
 Charge =  0 Multiplicity = 1

 SCF Done:  E(RB3LYP) =  -585.850070250     A.U. after   13 cycles
 SCF Done:  E(RB3LYP) =  -585.889673290     A.U. after   11 cycles
 SCF Done:  E(RB3LYP) =  -585.916639248     A.U. after   12 cycles
 SCF Done:  E(RB3LYP) =  -585.919726402     A.U. after   11 cycles
 SCF Done:  E(RB3LYP) =  -585.924031458     A.U. after   11 cycles
 SCF Done:  E(RB3LYP) =  -585.924538046     A.U. after   10 cycles
 SCF Done:  E(RB3LYP) =  -585.925805127     A.U. after   10 cycles
 SCF Done:  E(RB3LYP) =  -585.925922831     A.U. after   10 cycles
 SCF Done:  E(RB3LYP) =  -585.926028953     A.U. after   10 cycles
 SCF Done:  E(RB3LYP) =  -585.926082686     A.U. after    9 cycles
 SCF Done:  E(RB3LYP) =  -585.926128609     A.U. after    6 cycles
 SCF Done:  E(RB3LYP) =  -585.926128652     A.U. after    6 cycles
 SCF Done:  E(RB3LYP) =  -585.926128689     A.U. after    6 cycles
 SCF Done:  E(RB3LYP) =  -585.926128717     A.U. after    6 cycles
 SCF Done:  E(RB3LYP) =  -585.926128738     A.U. after    6 cycles
 Optimization completed.
    -- Stationary point found.
 Normal termination of Gaussian 16 at Thu Dec 10 16:06:01 2020.

 --------------------------------------------------------------------
 #N Geom=AllCheck Guess=TCheck SCRF=Check GenChk RB3LYP/6-31G(d) Freq
 --------------------------------------------------------------------

 Structure from the checkpoint file:  "JID_5629.chk"
 -------------------------------
 CID_148345597_JID_5629_neutraal
 -------------------------------
 Charge =  0 Multiplicity = 1

 SCF Done:  E(RB3LYP) =  -585.926128738     A.U. after    1 cycles

  Exact polarizability: 164.812   0.978 147.948   0.989  -0.579 130.504
 Approx polarizability: 228.997   2.215 214.720   2.930  -1.333 202.014

                      1                      2                      3
                      A                      A                      A
 Frequencies --     55.8912                79.4462               145.1836
 Red. masses --      1.9202                 1.9795                 1.7855
 Frc consts  --      0.0035                 0.0074                 0.0222
 IR Inten    --      0.2184                 0.2438                 0.0317

                      4                      5                      6
                      A                      A                      A
 Frequencies --    161.0210               172.2023               198.7765
 Red. masses --      1.3270                 1.6485                 2.1058
 Frc consts  --      0.0203                 0.0288                 0.0490
 IR Inten    --      0.1256                 0.0307                 0.0707

                      7                      8                      9
                      A                      A                      A
 Frequencies --    209.4618               212.2465               236.2951
 Red. masses --      1.7714                 1.1622                 1.5001
 Frc consts  --      0.0458                 0.0308                 0.0493
 IR Inten    --      0.1002                 0.0163                 0.0996

                     10                     11                     12
                      A                      A                      A
 Frequencies --    255.8282               282.6754               310.3255
 Red. masses --      2.2038                 1.8083                 2.1636
 Frc consts  --      0.0850                 0.0851                 0.1228
 IR Inten    --      0.2363                 0.0786                 0.6136

                     13                     14                     15
                      A                      A                      A
 Frequencies --    323.8468               360.5925               379.9638
 Red. masses --      1.8265                 2.9076                 2.3934
 Frc consts  --      0.1129                 0.2228                 0.2036
 IR Inten    --      0.2560                 0.1721                 0.1593

                     16                     17                     18
                      A                      A                      A
 Frequencies --    392.1230               407.9116               426.8873
 Red. masses --      2.6260                 2.5243                 2.6800
 Frc consts  --      0.2379                 0.2475                 0.2877
 IR Inten    --      0.3276                 0.2027                 0.2947

                     19                     20                     21
                      A                      A                      A
 Frequencies --    451.2927               481.0767               482.9900
 Red. masses --      2.6138                 2.7550                 2.6882
 Frc consts  --      0.3136                 0.3757                 0.3695
 IR Inten    --      0.4105                 0.1927                 0.2607

                     22                     23                     24
                      A                      A                      A
 Frequencies --    560.2781               570.1759               622.6379
 Red. masses --      2.8075                 3.1874                 3.6155
 Frc consts  --      0.5193                 0.6105                 0.8258
 IR Inten    --      0.1072                 0.7914                 0.5745

                     25                     26                     27
                      A                      A                      A
 Frequencies --    631.9793               695.9097               725.6634
 Red. masses --      3.4204                 3.4834                 3.0330
 Frc consts  --      0.8049                 0.9939                 0.9410
 IR Inten    --      2.6520                 3.2241                 1.5881

                     28                     29                     30
                      A                      A                      A
 Frequencies --    744.7622               765.0959               784.7931
 Red. masses --      2.8960                 2.6450                 3.0468
 Frc consts  --      0.9464                 0.9122                 1.1056
 IR Inten    --      0.4673                 0.1699                 0.8096

                     31                     32                     33
                      A                      A                      A
 Frequencies --    799.9123               834.5420               862.3774
 Red. masses --      2.8676                 2.1020                 2.6998
 Frc consts  --      1.0811                 0.8625                 1.1830
 IR Inten    --      0.4440                 0.0685                 0.5459

                     34                     35                     36
                      A                      A                      A
 Frequencies --    900.3764               909.0846               920.1933
 Red. masses --      2.4924                 2.3182                 1.8619
 Frc consts  --      1.1905                 1.1288                 0.9289
 IR Inten    --      0.1717                 0.4260                 0.2435

                     37                     38                     39
                      A                      A                      A
 Frequencies --    927.6100               942.4592               962.7598
 Red. masses --      1.9850                 1.7565                 1.9728
 Frc consts  --      1.0063                 0.9192                 1.0774
 IR Inten    --      1.4624                 0.9416                 2.4735

                     40                     41                     42
                      A                      A                      A
 Frequencies --   1011.4733              1032.5986              1037.2724
 Red. masses --      1.4647                 1.3598                 1.6090
 Frc consts  --      0.8829                 0.8543                 1.0200
 IR Inten    --      1.0675                 1.6533                 2.3440

                     43                     44                     45
                      A                      A                      A
 Frequencies --   1049.3821              1052.9053              1062.9936
 Red. masses --      1.5512                 1.1967                 1.4271
 Frc consts  --      1.0064                 0.7816                 0.9501
 IR Inten    --      1.6076                 1.7785                 2.0892

                     46                     47                     48
                      A                      A                      A
 Frequencies --   1086.5595              1091.2960              1101.4669
 Red. masses --      1.6131                 1.7508                 1.6241
 Frc consts  --      1.1221                 1.2285                 1.1609
 IR Inten    --      4.3158                 2.4405                 0.0722

                     49                     50                     51
                      A                      A                      A
 Frequencies --   1104.7310              1128.1724              1131.1985
 Red. masses --      1.6491                 2.2370                 1.9389
 Frc consts  --      1.1858                 1.6775                 1.4618
 IR Inten    --      3.4503                 2.5337                 6.6905

                     52                     53                     54
                      A                      A                      A
 Frequencies --   1147.7481              1151.7962              1159.7730
 Red. masses --      2.2968                 1.9843                 1.8597
 Frc consts  --      1.7826                 1.5510                 1.4738
 IR Inten    --      4.5297                 0.2543                 3.6545

                     55                     56                     57
                      A                      A                      A
 Frequencies --   1180.8711              1186.8058              1204.9407
 Red. masses --      1.8850                 1.8403                 1.9305
 Frc consts  --      1.5487                 1.5272                 1.6514
 IR Inten    --      1.0966                 1.6686                 1.0294

                     58                     59                     60
                      A                      A                      A
 Frequencies --   1214.1347              1219.0358              1232.5728
 Red. masses --      1.8658                 2.0970                 1.8088
 Frc consts  --      1.6205                 1.8361                 1.6191
 IR Inten    --      5.5365                 0.6807                 1.6701

                     61                     62                     63
                      A                      A                      A
 Frequencies --   1243.5841              1253.5274              1280.8392
 Red. masses --      1.5125                 1.7323                 2.8349
 Frc consts  --      1.3781                 1.6038                 2.7402
 IR Inten    --      1.4644                 0.0593                 1.0656

                     64                     65                     66
                      A                      A                      A
 Frequencies --   1294.9988              1308.5911              1326.6618
 Red. masses --      2.9226                 1.4787                 1.7719
 Frc consts  --      2.8878                 1.4919                 1.8375
 IR Inten    --      2.3514                 3.4370                 5.7685

                     67                     68                     69
                      A                      A                      A
 Frequencies --   1331.7397              1391.9803              1435.2184
 Red. masses --      1.7304                 1.3621                 1.2317
 Frc consts  --      1.8081                 1.5550                 1.4949
 IR Inten    --      4.7935                 5.1175                 1.5503

                     70                     71                     72
                      A                      A                      A
 Frequencies --   1435.9740              1438.8043              1442.9009
 Red. masses --      1.2191                 1.2679                 1.2477
 Frc consts  --      1.4811                 1.5465                 1.5305
 IR Inten    --      0.3066                 0.6957                 7.3794

                     73                     74                     75
                      A                      A                      A
 Frequencies --   1450.3149              1511.0464              1513.6258
 Red. masses --      1.1867                 1.0944                 1.0698
 Frc consts  --      1.4707                 1.4723                 1.4440
 IR Inten    --      4.3858                 4.4368                 3.3167

                     76                     77                     78
                      A                      A                      A
 Frequencies --   1516.2443              1519.0014              1520.5377
 Red. masses --      1.0676                 1.0513                 1.0436
 Frc consts  --      1.4461                 1.4291                 1.4216
 IR Inten    --      1.4633                 1.8049                 3.1448

                     79                     80                     81
                      A                      A                      A
 Frequencies --   1524.9105              1528.5518              1531.7969
 Red. masses --      1.0589                 1.0524                 1.0536
 Frc consts  --      1.4508                 1.4487                 1.4566
 IR Inten    --      2.0675                 2.7574                 2.5380

                     82                     83                     84
                      A                      A                      A
 Frequencies --   1535.2205              1540.6377              1552.2548
 Red. masses --      1.0618                 1.0607                 1.0581
 Frc consts  --      1.4744                 1.4834                 1.5021
 IR Inten    --      1.6572                11.9835                 2.3339

                     85                     86                     87
                      A                      A                      A
 Frequencies --   1554.9349              1559.7838              1567.1771
 Red. masses --      1.0503                 1.0609                 1.0849
 Frc consts  --      1.4962                 1.5207                 1.5699
 IR Inten    --      5.3591                 7.4484                 2.8673

                     88                     89                     90
                      A                      A                      A
 Frequencies --   3031.2581              3040.7818              3046.9721
 Red. masses --      1.0807                 1.0377                 1.0498
 Frc consts  --      5.8506                 5.6531                 5.7425
 IR Inten    --     16.9859                28.7359                18.5955

                     91                     92                     93
                      A                      A                      A
 Frequencies --   3055.4321              3057.5751              3059.1811
 Red. masses --      1.0467                 1.0518                 1.0577
 Frc consts  --      5.7570                 5.7935                 5.8320
 IR Inten    --     41.9344                32.3824                20.7202

                     94                     95                     96
                      A                      A                      A
 Frequencies --   3066.5672              3072.9775              3087.3007
 Red. masses --      1.0431                 1.0622                 1.0612
 Frc consts  --      5.7794                 5.9100                 5.9594
 IR Inten    --     68.3147                50.6017                32.3369

                     97                     98                     99
                      A                      A                      A
 Frequencies --   3099.2426              3102.0894              3105.9434
 Red. masses --      1.1007                 1.1017                 1.0964
 Frc consts  --      6.2294                 6.2464                 6.2317
 IR Inten    --     30.0867                21.9690                19.8249

                    100                    101                    102
                      A                      A                      A
 Frequencies --   3107.0389              3117.0505              3117.5884
 Red. masses --      1.0889                 1.0985                 1.0951
 Frc consts  --      6.1935                 6.2883                 6.2709
 IR Inten    --     74.8531                37.6416                28.8453

                    103                    104                    105
                      A                      A                      A
 Frequencies --   3120.7346              3126.1645              3133.5114
 Red. masses --      1.0942                 1.0991                 1.1025
 Frc consts  --      6.2785                 6.3285                 6.3783
 IR Inten    --     19.2856                25.7121                47.2773

                    106                    107                    108
                      A                      A                      A
 Frequencies --   3134.0554              3141.6245              3147.1936
 Red. masses --      1.1015                 1.1008                 1.1000
 Frc consts  --      6.3745                 6.4015                 6.4194
 IR Inten    --     18.5428                91.8487                25.0610

                    109                    110                    111
                      A                      A                      A
 Frequencies --   3151.2329              3159.2544              3267.9791
 Red. masses --      1.1029                 1.0931                 1.0761
 Frc consts  --      6.4525                 6.4279                 6.7711
 IR Inten    --     22.3680                19.4587                 2.8258

 - Thermochemistry -
 -------------------
 Temperature   298.150 Kelvin.  Pressure   1.00000 Atm.
 Atom     1 has atomic number  6 and mass  12.00000

 Molecular mass:   204.18780 amu.
 Principal axes and moments of inertia in atomic units:
                           1         2         3
     Eigenvalues --  2098.258343037.841323554.84247
           X            0.99998   0.00137  -0.00650
           Y           -0.00128   0.99992   0.01269
           Z            0.00651  -0.01268   0.99990
 This molecule is an asymmetric top.
 Rotational symmetry number  1.
 Warning -- assumption of classical behavior for rotation
           may cause significant error
 Rotational temperatures (Kelvin)      0.04128     0.02851     0.02437
 Rotational constants (GHZ):           0.86011     0.59409     0.50769
 Zero-point vibrational energy     941664.3 (Joules/Mol)
                                  225.06318 (Kcal/Mol)
 Warning -- explicit consideration of  23 degrees of freedom as
           vibrations may cause significant error
 Vibrational temperatures:     80.41   114.31   208.89   231.67   247.76
          (Kelvin)            285.99   301.37   305.38   339.98   368.08
                              406.71   446.49   465.94   518.81   546.68
                              564.18   586.89   614.20   649.31   692.16
                              694.91   806.12   820.36   895.84   909.28
                             1001.26  1044.07  1071.55  1100.80  1129.14
                             1150.90  1200.72  1240.77  1295.44  1307.97
                             1323.95  1334.62  1355.99  1385.20  1455.28
                             1485.68  1492.40  1509.83  1514.90  1529.41
                             1563.32  1570.13  1584.77  1589.46  1623.19
                             1627.54  1651.35  1657.18  1668.65  1699.01
                             1707.55  1733.64  1746.87  1753.92  1773.40
                             1789.24  1803.55  1842.84  1863.21  1882.77
                             1908.77  1916.08  2002.75  2064.96  2066.05
                             2070.12  2076.01  2086.68  2174.06  2177.77
                             2181.54  2185.50  2187.71  2194.01  2199.25
                             2203.91  2208.84  2216.63  2233.35  2237.20
                             2244.18  2254.82  4361.30  4375.01  4383.91
                             4396.09  4399.17  4401.48  4412.11  4421.33
                             4441.94  4459.12  4463.21  4468.76  4470.34
                             4484.74  4485.51  4490.04  4497.85  4508.42
                             4509.21  4520.10  4528.11  4533.92  4545.46
                             4701.89

 Zero-point correction=                           0.358661 (Hartree/Particle)
 Thermal correction to Energy=                    0.373482
 Thermal correction to Enthalpy=                  0.374426
 Thermal correction to Gibbs Free Energy=         0.318977
 Sum of electronic and zero-point Energies=           -585.567468
 Sum of electronic and thermal Energies=              -585.552647
 Sum of electronic and thermal Enthalpies=            -585.551702
 Sum of electronic and thermal Free Energies=         -585.607152

                     E (Thermal)             CV                S
                      KCal/Mol        Cal/Mol-Kelvin    Cal/Mol-Kelvin
 Total                  234.364             61.594            116.702
 Electronic               0.000              0.000              0.000
 Translational            0.889              2.981             41.846
 Rotational               0.889              2.981             31.494
 Vibrational            232.586             55.633             43.362
 Vibration     1          0.596              1.975              4.597
 Vibration     2          0.600              1.963              3.905
 Vibration     3          0.617              1.908              2.734
 Vibration     4          0.622              1.890              2.538
 Vibration     5          0.626              1.877              2.411
 Vibration     6          0.637              1.842              2.144
 Vibration     7          0.642              1.826              2.048
 Vibration     8          0.643              1.822              2.024
 Vibration     9          0.655              1.785              1.831
 Vibration    10          0.666              1.753              1.690
 Vibration    11          0.682              1.706              1.517
 Vibration    12          0.699              1.654              1.361
 Vibration    13          0.708              1.628              1.291
 Vibration    14          0.735              1.553              1.120
 Vibration    15          0.750              1.513              1.039
 Vibration    16          0.760              1.487              0.992
 Vibration    17          0.772              1.453              0.934
 Vibration    18          0.789              1.412              0.869
 Vibration    19          0.810              1.358              0.792
 Vibration    20          0.837              1.292              0.707
 Vibration    21          0.839              1.288              0.702
 Vibration    22          0.916              1.117              0.523
 Vibration    23          0.926              1.096              0.504

 Optimization completed.
    -- Stationary point found.
 Normal termination of Gaussian 16 at Thu Dec 10 16:22:59 2020.

 ----------------------------------------------------------------------
 # B3LYP/6-311++G(d,p) empiricaldispersion=gd3bj scf=xqc pop=npa geom=c
 heck
 ----------------------------------------------------------------------

 ---------------------------------------
 CID_148345597_JID_5629_Energie_neutraal
 ---------------------------------------
 Structure from the checkpoint file:  "JID_5629.chk"
 Charge =  0 Multiplicity = 1

 SCF Done:  E(RB3LYP) =  -586.075125830     A.U. after   14 cycles
 Normal termination of Gaussian 16 at Thu Dec 10 16:33:34 2020.

 ----------------------------------------------------------------------
 # B3LYP/6-311++G(d,p) empiricaldispersion=gd3bj scf=xqc pop=npa geom=c
 heck
 ----------------------------------------------------------------------

 -------------------------------------
 CID_148345597_JID_5629_Energie_kation
 -------------------------------------
 Structure from the checkpoint file:  "JID_5629.chk"
 Charge =  1 Multiplicity = 2

 SCF Done:  E(UB3LYP) =  -585.783217790     A.U. after   19 cycles
 Normal termination of Gaussian 16 at Thu Dec 10 16:55:04 2020.
 Gaussian 16:  ES64L-G16RevA.03 25-Dec-2016

 ----------------------------------------------------------------------
 # B3LYP/6-311++G(d,p) empiricaldispersion=gd3bj scf=xqc pop=npa geom=c
 heck
 ----------------------------------------------------------------------

 ------------------------------------
 CID_148345597_JID_5629_Energie_anion
 ------------------------------------
 Structure from the checkpoint file:  "JID_5629.chk"
 Charge = -1 Multiplicity = 2

                         Standard orientation:
 ---------------------------------------------------------------------
 Center     Atomic      Atomic             Coordinates (Angstroms)
 Number     Number       Type             X           Y           Z
 ---------------------------------------------------------------------
      1          6           0        2.235719    1.516713    1.433870
      2          6           0        2.461964    0.322402    0.520485
      3          6           0        2.505300    0.650514   -1.050982
      4          6           0        0.997450    0.229811   -1.026600
      5          6           0        1.246302   -0.646951    0.146216
      6          6           0       -0.342487   -0.944925    0.193434
      7          6           0       -0.317654   -0.556471   -1.388540
      8          6           0       -1.641298    0.232934   -1.513191
      9          6           0       -2.537613   -0.609016   -0.560341
     10          6           0       -1.562490   -0.014229    0.555045
     11          6           0       -1.660016    1.274500   -0.356329
     12          6           0       -0.901292    2.612359   -0.261624
     13          6           0       -1.948090    0.115542    2.013224
     14          6           0       -0.661605   -2.359762    0.725819
     15          6           0        1.929275   -1.991876   -0.207525
     16          1           0        1.402378    2.142844    1.109290
     17          1           0        3.129127    2.152294    1.464650
     18          1           0        2.026191    1.184423    2.457490
     19          1           0        3.339943   -0.226247    0.880679
     20          1           0        2.716608    1.689593   -1.326470
     21          1           0        3.189654   -0.006438   -1.591247
     22          1           0        0.584110    1.120909   -0.582580
     23          1           0       -0.240830   -1.399652   -2.078895
     24          1           0       -1.973864    0.508030   -2.517676
     25          1           0       -2.554422   -1.688489   -0.718345
     26          1           0       -3.561616   -0.235087   -0.471131
     27          1           0       -2.710247    1.567259   -0.244682
     28          1           0       -0.124446    2.751794   -1.017455
     29          1           0       -1.610386    3.438225   -0.390079
     30          1           0       -0.442524    2.744600    0.723554
     31          1           0       -2.908971    0.632076    2.121561
     32          1           0       -2.029992   -0.855038    2.513234
     33          1           0       -1.191307    0.700063    2.551808
     34          1           0       -1.714236   -2.484607    0.988308
     35          1           0       -0.414160   -3.151363    0.014480
     36          1           0       -0.082150   -2.548512    1.636241
     37          1           0        2.019077   -2.615502    0.688846
     38          1           0        1.389224   -2.570388   -0.961379
     39          1           0        2.942060   -1.840045   -0.587983
 ---------------------------------------------------------------------

 SCF Done:  E(UB3LYP) =  -586.058302635     A.U. after   33 cycles
 SCF Done:  E(UB3LYP) =  -586.058302635     a.u. after    1 cycles

 The electronic state is 2-A.
 Alpha  occ. eigenvalues --  -10.09289 -10.09266 -10.08278 -10.08271 -10.07734
 Alpha  occ. eigenvalues --  -10.07584 -10.07536 -10.07205 -10.06936 -10.05976
 Alpha  occ. eigenvalues --  -10.05901 -10.05805 -10.05701 -10.05509 -10.05443
 Alpha  occ. eigenvalues --   -0.80601  -0.75966  -0.67672  -0.65010  -0.63117
 Alpha  occ. eigenvalues --   -0.61622  -0.61096  -0.58812  -0.53906  -0.51775
 Alpha  occ. eigenvalues --   -0.50598  -0.49597  -0.44658  -0.44340  -0.39384
 Alpha  occ. eigenvalues --   -0.37687  -0.36660  -0.36519  -0.34861  -0.33368
 Alpha  occ. eigenvalues --   -0.32050  -0.31874  -0.31556  -0.31095  -0.30903
 Alpha  occ. eigenvalues --   -0.29808  -0.29305  -0.28548  -0.27193  -0.26780
 Alpha  occ. eigenvalues --   -0.26026  -0.24916  -0.24315  -0.23259  -0.22365
 Alpha  occ. eigenvalues --   -0.21911  -0.20871  -0.20225  -0.18895  -0.18179
 Alpha  occ. eigenvalues --   -0.16962  -0.13376   0.04452
 Alpha virt. eigenvalues --    0.06436   0.06748   0.07187   0.08416   0.08432
 Alpha virt. eigenvalues --    0.08753   0.09166   0.09366   0.10743   0.11149
 Alpha virt. eigenvalues --    0.11305   0.11420   0.11939   0.12364   0.12472

  Beta  occ. eigenvalues --  -10.09284 -10.09265 -10.08269 -10.08266 -10.07727
  Beta  occ. eigenvalues --  -10.07567 -10.07526 -10.07205 -10.06922 -10.05952
  Beta  occ. eigenvalues --  -10.05878 -10.05780 -10.05683 -10.05490 -10.05439
  Beta  occ. eigenvalues --   -0.80587  -0.75951  -0.67651  -0.64987  -0.63083
  Beta  occ. eigenvalues --   -0.61587  -0.61067  -0.58776  -0.53870  -0.51728
  Beta  occ. eigenvalues --   -0.50562  -0.49557  -0.44631  -0.44310  -0.39354
  Beta  occ. eigenvalues --   -0.37649  -0.36633  -0.36487  -0.34828  -0.33346
  Beta  occ. eigenvalues --   -0.32019  -0.31849  -0.31530  -0.31069  -0.30878
  Beta  occ. eigenvalues --   -0.29783  -0.29281  -0.28526  -0.27167  -0.26757
  Beta  occ. eigenvalues --   -0.25999  -0.24883  -0.24293  -0.23228  -0.22343
  Beta  occ. eigenvalues --   -0.21883  -0.20844  -0.20205  -0.18876  -0.18164
  Beta  occ. eigenvalues --   -0.16944  -0.13362
  Beta virt. eigenvalues --    0.06445   0.07308   0.07387   0.07674   0.08927
  Beta virt. eigenvalues --    0.08967   0.09183   0.09535   0.09775   0.11250
  Beta virt. eigenvalues --    0.11525   0.11673   0.11756   0.12261   0.12635

 Mulliken charges and spin densities:
               1          2
     1  C    0.506783  -1.182737
     2  C   -1.143876   1.297994
     3  C    0.296793  -0.966614
     4  C    0.557113  -0.244462
     5  C   -0.406885   0.377521
     6  C   -0.583488   0.552417
     7  C   -0.456383   0.197412
     8  C   -0.938949   0.828252
     9  C   -0.325698  -0.276073
    10  C   -0.522002   1.234013
    11  C   -0.380531  -0.104979
    12  C   -0.089417  -0.633335
    13  C    2.390799  -2.531800
    14  C    0.170822  -0.474040
    15  C    0.387266  -1.039287
    16  H    0.125524   0.019272
    17  H   -0.165022   0.306546
    18  H   -0.175053   0.327666
    19  H   -0.235867   0.460525
    20  H   -0.274236   0.437409
    21  H   -0.069413   0.216281
    22  H    2.208318  -2.482455
    23  H    0.084044   0.138223
    24  H   -0.350325   0.557255
    25  H    0.018151   0.134153
    26  H   -0.470191   0.638691
    27  H    0.192771  -0.003720
    28  H   -0.233934   0.440456
    29  H   -0.852872   1.014359
    30  H    0.112705   0.030743
    31  H   -0.316954   0.472949
    32  H   -0.054645   0.215532
    33  H    0.087345   0.063016
    34  H    0.070056   0.059739
    35  H    0.024054   0.136909
    36  H   -0.130974   0.305455
    37  H   -0.108383   0.258319
    38  H    0.015314   0.118912
    39  H    0.037239   0.099483
 Sum of Mulliken charges =  -1.00000   1.00000

 Dipole moment (field-independent basis, Debye):
    X=              1.1088    Y=             -2.6883    Z=             -1.4984  Tot=              3.2713
 Quadrupole moment (field-independent basis, Debye-Ang):
   XX=           -163.9019   YY=           -150.1926   ZZ=           -138.6555
   XY=              6.9326   XZ=             -1.7020   YZ=              3.4014

 Summary of Natural Population Analysis:

                                       Natural Population
                Natural  -----------------------------------------------
    Atom  No    Charge         Core      Valence    Rydberg      Total
 -----------------------------------------------------------------------
      C    1   -0.28603      0.99962     2.28023    0.00618     3.28603
      C    2   -0.09343      0.99958     2.08171    0.01214     3.09343
      C    3   -0.17545      0.99962     2.16721    0.00863     3.17545
      C    4   -0.13872      0.99934     2.12726    0.01212     3.13872
      C    5   -0.02894      0.99943     2.01339    0.01611     3.02894
      C    6   -0.01564      0.99950     1.99958    0.01656     3.01564
      C    7   -0.08630      0.99955     2.07595    0.01080     3.08630
      C    8   -0.10397      0.99956     2.09130    0.01311     3.10397
      C    9   -0.17755      0.99960     2.16840    0.00955     3.17755
      C   10   -0.02123      0.99949     2.00434    0.01740     3.02123
      C   11   -0.11049      0.99953     2.09673    0.01423     3.11049
      C   12   -0.29381      0.99963     2.28814    0.00605     3.29381
      C   13   -0.28992      0.99958     2.28320    0.00713     3.28992
      C   14   -0.29498      0.99960     2.28816    0.00722     3.29498
      C   15   -0.29159      0.99962     2.28461    0.00735     3.29159
      H   16    0.09800      0.00000     0.40051    0.00148     0.40200
      H   17    0.09852      0.00000     0.40052    0.00097     0.40148
      H   18    0.10134      0.00000     0.39742    0.00124     0.39866
      H   19    0.09428      0.00000     0.40424    0.00148     0.40572
      H   20    0.09558      0.00000     0.40347    0.00095     0.40442
      H   21    0.09845      0.00000     0.40043    0.00113     0.40155
      H   22    0.10607      0.00000     0.38871    0.00523     0.39393
      H   23    0.10225      0.00000     0.39665    0.00109     0.39775
      H   24    0.09882      0.00000     0.40026    0.00092     0.40118
      H   25    0.09592      0.00000     0.40299    0.00109     0.40408
      H   26    0.10097      0.00000     0.39750    0.00152     0.39903
      H   27    0.09738      0.00000     0.40015    0.00247     0.40262
      H   28    0.10115      0.00000     0.39775    0.00111     0.39885
      H   29    0.10350      0.00000     0.39538    0.00112     0.39650
      H   30    0.10189      0.00000     0.39688    0.00122     0.39811
      H   31    0.10223      0.00000     0.39662    0.00116     0.39777
      H   32    0.10197      0.00000     0.39705    0.00098     0.39803
      H   33    0.10338      0.00000     0.39542    0.00120     0.39662
      H   34    0.10072      0.00000     0.39832    0.00096     0.39928
      H   35    0.10172      0.00000     0.39737    0.00090     0.39828
      H   36    0.10404      0.00000     0.39497    0.00099     0.39596
      H   37    0.10233      0.00000     0.39668    0.00099     0.39767
      H   38    0.09740      0.00000     0.40166    0.00094     0.40260
      H   39    0.10014      0.00000     0.39874    0.00113     0.39986
 =======================================================================
   * Total *   -0.00000     14.99324    41.80990    0.19686    57.00000

 Normal termination of Gaussian 16 at Thu Dec 10 17:33:02 2020.
