 Gaussian 16, Revision A.03,

 -----------------------------------------------------------
 # opt freq B3LYP/6-31G(d) empiricaldispersion=gd3bj scf=xqc
 -----------------------------------------------------------

 -------------------------------
 CID_143370785_JID_5031_neutraal
 -------------------------------
 Symbolic Z-matrix:
 Charge =  0 Multiplicity = 1

 SCF Done:  E(RB3LYP) =  -1040.24575552     A.U. after   15 cycles
 SCF Done:  E(RB3LYP) =  -1040.25083071     A.U. after   13 cycles
 SCF Done:  E(RB3LYP) =  -1040.25143784     A.U. after   13 cycles
 SCF Done:  E(RB3LYP) =  -1040.25189365     A.U. after   13 cycles
 SCF Done:  E(RB3LYP) =  -1040.25219609     A.U. after   12 cycles
 SCF Done:  E(RB3LYP) =  -1040.25234250     A.U. after   12 cycles
 SCF Done:  E(RB3LYP) =  -1040.25236862     A.U. after   11 cycles
 SCF Done:  E(RB3LYP) =  -1040.25238150     A.U. after    9 cycles
 SCF Done:  E(RB3LYP) =  -1040.25238435     A.U. after    9 cycles
 Optimization completed.
    -- Stationary point found.
 Normal termination of Gaussian 16 at Thu Dec 10 14:40:51 2020.

 --------------------------------------------------------------------
 #N Geom=AllCheck Guess=TCheck SCRF=Check GenChk RB3LYP/6-31G(d) Freq
 --------------------------------------------------------------------

 Structure from the checkpoint file:  "JID_5031.chk"
 -------------------------------
 CID_143370785_JID_5031_neutraal
 -------------------------------
 Charge =  0 Multiplicity = 1

 SCF Done:  E(RB3LYP) =  -1040.25238435     A.U. after    1 cycles

  Exact polarizability: 235.955  10.186 139.081   3.528  -3.294  59.647
 Approx polarizability: 348.360  33.073 270.459  10.705 -13.091  98.949

                      1                      2                      3
                      A                      A                      A
 Frequencies --     30.2221                52.7800                76.5000
 Red. masses --      6.8044                 6.7782                 6.4283
 Frc consts  --      0.0037                 0.0111                 0.0222
 IR Inten    --      1.7311                 6.3989                 1.7162

                      4                      5                      6
                      A                      A                      A
 Frequencies --     89.9954               146.6700               175.7312
 Red. masses --      5.7529                 4.8457                 5.2718
 Frc consts  --      0.0275                 0.0614                 0.0959
 IR Inten    --      1.1559                 5.3606                 2.9554

                      7                      8                      9
                      A                      A                      A
 Frequencies --    210.7985               272.8117               299.9786
 Red. masses --      5.1307                 7.4234                 1.8724
 Frc consts  --      0.1343                 0.3255                 0.0993
 IR Inten    --      4.6670                 1.5893                15.0548

                     10                     11                     12
                      A                      A                      A
 Frequencies --    318.9572               355.7273               382.6456
 Red. masses --      1.8270                 4.9236                 5.1455
 Frc consts  --      0.1095                 0.3671                 0.4439
 IR Inten    --     38.6434                 4.9073                 0.4500

                     13                     14                     15
                      A                      A                      A
 Frequencies --    402.8023               424.7058               432.5529
 Red. masses --      3.4302                 2.1870                 1.7593
 Frc consts  --      0.3279                 0.2324                 0.1939
 IR Inten    --     11.8740                57.9654               100.3412

                     16                     17                     18
                      A                      A                      A
 Frequencies --    489.9683               523.9161               551.6269
 Red. masses --      3.3386                 3.6972                 1.7779
 Frc consts  --      0.4722                 0.5979                 0.3187
 IR Inten    --     68.6345                47.3575               221.3078

                     19                     20                     21
                      A                      A                      A
 Frequencies --    568.7867               592.5829               604.8369
 Red. masses --      1.7768                 2.8822                 5.7413
 Frc consts  --      0.3387                 0.5963                 1.2375
 IR Inten    --     66.2978                12.3917                 1.3530

                     22                     23                     24
                      A                      A                      A
 Frequencies --    634.7079               647.7086               658.8410
 Red. masses --      3.7967                 4.3380                 5.1749
 Frc consts  --      0.9012                 1.0722                 1.3235
 IR Inten    --     29.1054               126.1169                 8.8725

                     25                     26                     27
                      A                      A                      A
 Frequencies --    688.2474               721.4144               763.3888
 Red. masses --      6.8052                 2.5930                 6.3418
 Frc consts  --      1.8993                 0.7951                 2.1775
 IR Inten    --     24.5372                 4.2925                 6.2325

                     28                     29                     30
                      A                      A                      A
 Frequencies --    774.8460               832.3955               869.6547
 Red. masses --      5.0165                 6.9414                 1.4182
 Frc consts  --      1.7745                 2.8337                 0.6320
 IR Inten    --     32.0480                 8.8996                11.1159

                     31                     32                     33
                      A                      A                      A
 Frequencies --    919.9131               946.5248               975.2981
 Red. masses --      1.7583                 1.3561                 1.4791
 Frc consts  --      0.8767                 0.7158                 0.8289
 IR Inten    --      9.7143                 2.3814                 0.7348

                     34                     35                     36
                      A                      A                      A
 Frequencies --   1041.4225              1049.0575              1073.3656
 Red. masses --      5.3982                 4.7049                 1.8932
 Frc consts  --      3.4495                 3.0507                 1.2851
 IR Inten    --     11.7036                 9.0306                52.6911

                     37                     38                     39
                      A                      A                      A
 Frequencies --   1103.8613              1161.7117              1198.1496
 Red. masses --      2.0328                 1.8872                 2.4480
 Frc consts  --      1.4594                 1.5006                 2.0706
 IR Inten    --      9.7145                 3.9082                11.9416

                     40                     41                     42
                      A                      A                      A
 Frequencies --   1262.3523              1274.7138              1302.9452
 Red. masses --      1.5243                 3.2949                 4.7143
 Frc consts  --      1.4312                 3.1544                 4.7154
 IR Inten    --     70.0750                13.6117                21.4802

                     43                     44                     45
                      A                      A                      A
 Frequencies --   1324.1638              1347.5835              1372.7094
 Red. masses --      3.5173                 2.3042                 1.4461
 Frc consts  --      3.6336                 2.4654                 1.6055
 IR Inten    --     27.2417                83.9046                16.2182

                     46                     47                     48
                      A                      A                      A
 Frequencies --   1389.0500              1469.0698              1487.8325
 Red. masses --      3.6619                 3.2951                 2.9098
 Frc consts  --      4.1628                 4.1899                 3.7951
 IR Inten    --    159.9104                 2.9500                 6.4943

                     49                     50                     51
                      A                      A                      A
 Frequencies --   1561.0172              1599.4870              1617.0010
 Red. masses --      4.9669                 4.4257                 5.1653
 Frc consts  --      7.1310                 6.6710                 7.9573
 IR Inten    --    385.8577                64.5284                26.6769

                     52                     53                     54
                      A                      A                      A
 Frequencies --   1644.7236              1651.1685              1674.2578
 Red. masses --      2.1056                 1.8962                 1.3781
 Frc consts  --      3.3559                 3.0459                 2.2761
 IR Inten    --     53.5682                92.5712               237.2087

                     55                     56                     57
                      A                      A                      A
 Frequencies --   1794.3717              3167.5950              3203.9026
 Red. masses --      8.5459                 1.0899                 1.0902
 Frc consts  --     16.2119                 6.4429                 6.5933
 IR Inten    --    285.1554                21.8790                 4.3035

                     58                     59                     60
                      A                      A                      A
 Frequencies --   3214.6925              3225.7978              3561.1000
 Red. masses --      1.0913                 1.0924                 1.0470
 Frc consts  --      6.6449                 6.6977                 7.8230
 IR Inten    --      1.2872                10.0741                70.4318

                     61                     62                     63
                      A                      A                      A
 Frequencies --   3576.5728              3671.1319              3694.8331
 Red. masses --      1.0461                 1.1002                 1.1024
 Frc consts  --      7.8843                 8.7359                 8.8673
 IR Inten    --     35.9031                31.4517                28.0185

 - Thermochemistry -
 -------------------
 Temperature   298.150 Kelvin.  Pressure   1.00000 Atm.
 Atom     1 has atomic number  6 and mass  12.00000

 Molecular mass:   220.04188 amu.
 Principal axes and moments of inertia in atomic units:
                           1         2         3
     Eigenvalues --  1240.712357102.316748201.01914
           X            0.99998  -0.00423  -0.00414
           Y            0.00426   0.99995   0.00935
           Z            0.00410  -0.00937   0.99995
 This molecule is an asymmetric top.
 Rotational symmetry number  1.
 Warning -- assumption of classical behavior for rotation
           may cause significant error
 Rotational temperatures (Kelvin)      0.06981     0.01220     0.01056
 Rotational constants (GHZ):           1.45460     0.25411     0.22006
 Zero-point vibrational energy     443534.5 (Joules/Mol)
                                  106.00729 (Kcal/Mol)
 Warning -- explicit consideration of  21 degrees of freedom as
           vibrations may cause significant error
 Vibrational temperatures:     43.48    75.94   110.07   129.48   211.03
          (Kelvin)            252.84   303.29   392.52   431.60   458.91
                              511.81   550.54   579.54   611.06   622.35
                              704.96   753.80   793.67   818.36   852.59
                              870.23   913.20   931.91   947.93   990.23
                             1037.95  1098.35  1114.83  1197.63  1251.24
                             1323.55  1361.84  1403.24  1498.37  1509.36
                             1544.33  1588.21  1671.44  1723.87  1816.24
                             1834.03  1874.65  1905.18  1938.87  1975.02
                             1998.53  2113.66  2140.66  2245.96  2301.31
                             2326.50  2366.39  2375.66  2408.88  2581.70
                             4557.46  4609.70  4625.23  4641.20  5123.63
                             5145.89  5281.94  5316.04

 Zero-point correction=                           0.168933 (Hartree/Particle)
 Thermal correction to Energy=                    0.182075
 Thermal correction to Enthalpy=                  0.183019
 Thermal correction to Gibbs Free Energy=         0.127948
 Sum of electronic and zero-point Energies=          -1040.083451
 Sum of electronic and thermal Energies=             -1040.070309
 Sum of electronic and thermal Enthalpies=           -1040.069365
 Sum of electronic and thermal Free Energies=        -1040.124437

                     E (Thermal)             CV                S
                      KCal/Mol        Cal/Mol-Kelvin    Cal/Mol-Kelvin
 Total                  114.254             50.033            115.908
 Electronic               0.000              0.000              0.000
 Translational            0.889              2.981             42.069
 Rotational               0.889              2.981             32.647
 Vibrational            112.476             44.072             41.193
 Vibration     1          0.594              1.984              5.815
 Vibration     2          0.596              1.976              4.710
 Vibration     3          0.599              1.965              3.979
 Vibration     4          0.602              1.956              3.660
 Vibration     5          0.617              1.906              2.715
 Vibration     6          0.628              1.872              2.373
 Vibration     7          0.643              1.824              2.037
 Vibration     8          0.676              1.723              1.578
 Vibration     9          0.693              1.674              1.417
 Vibration    10          0.705              1.637              1.315
 Vibration    11          0.731              1.563              1.141
 Vibration    12          0.752              1.507              1.029
 Vibration    13          0.768              1.464              0.952
 Vibration    14          0.787              1.416              0.876
 Vibration    15          0.793              1.399              0.850
 Vibration    16          0.846              1.272              0.684
 Vibration    17          0.879              1.197              0.601
 Vibration    18          0.907              1.136              0.541
 Vibration    19          0.925              1.099              0.507
 Vibration    20          0.950              1.048              0.463
 Vibration    21          0.963              1.022              0.441

                           ! Non-Optimized Parameters !
 Normal termination of Gaussian 16 at Thu Dec 10 14:46:23 2020.

 ----------------------------------------------------------------------
 # B3LYP/6-311++G(d,p) empiricaldispersion=gd3bj scf=xqc pop=npa geom=c
 heck
 ----------------------------------------------------------------------

 ---------------------------------------
 CID_143370785_JID_5031_Energie_neutraal
 ---------------------------------------
 Structure from the checkpoint file:  "JID_5031.chk"
 Charge =  0 Multiplicity = 1

 SCF Done:  E(RB3LYP) =  -1040.46460760     A.U. after   17 cycles
 Normal termination of Gaussian 16 at Thu Dec 10 14:48:44 2020.

 ----------------------------------------------------------------------
 # B3LYP/6-311++G(d,p) empiricaldispersion=gd3bj scf=xqc pop=npa geom=c
 heck
 ----------------------------------------------------------------------

 -------------------------------------
 CID_143370785_JID_5031_Energie_kation
 -------------------------------------
 Structure from the checkpoint file:  "JID_5031.chk"
 Charge =  1 Multiplicity = 2

 SCF Done:  E(UB3LYP) =  -1040.17774954     A.U. after   26 cycles
 Normal termination of Gaussian 16 at Thu Dec 10 14:53:47 2020.
 Gaussian 16:  ES64L-G16RevA.03 25-Dec-2016

 ----------------------------------------------------------------------
 # B3LYP/6-311++G(d,p) empiricaldispersion=gd3bj scf=xqc pop=npa geom=c
 heck
 ----------------------------------------------------------------------

 ------------------------------------
 CID_143370785_JID_5031_Energie_anion
 ------------------------------------
 Structure from the checkpoint file:  "JID_5031.chk"
 Charge = -1 Multiplicity = 2

                         Standard orientation:
 ---------------------------------------------------------------------
 Center     Atomic      Atomic             Coordinates (Angstroms)
 Number     Number       Type             X           Y           Z
 ---------------------------------------------------------------------
      1          6           0        1.219324   -0.431718    0.006371
      2          6           0        0.116757    0.434307    0.069881
      3          6           0        0.400145    1.811979    0.109138
      4          7           0        1.629798    2.331040    0.105730
      5          6           0        2.661614    1.484413    0.069366
      6          6           0        2.510367    0.092154    0.008620
      7          6           0        3.749221   -0.750184   -0.046580
      8          8           0        4.829514   -0.337871    0.352046
      9          7           0        3.587596   -2.022923   -0.544348
     10          6           0       -1.246708   -0.078947    0.104541
     11          6           0       -1.696523   -1.314780    0.487501
     12          7           0       -3.050037   -1.542519    0.446425
     13          6           0       -3.678607   -0.479707    0.023259
     14         16           0       -2.643291    0.898257   -0.369515
     15          7           0       -5.034012   -0.426640   -0.186928
     16          1           0        1.058771   -1.504850   -0.027436
     17          1           0       -0.417355    2.529635    0.161073
     18          1           0        3.660355    1.910810    0.080085
     19          1           0        2.829802   -2.221720   -1.181908
     20          1           0        4.446742   -2.534492   -0.699172
     21          1           0       -1.051759   -2.106780    0.852106
     22          1           0       -5.483716    0.472568   -0.078224
     23          1           0       -5.533242   -1.192141    0.250623
 ---------------------------------------------------------------------

 SCF Done:  E(UB3LYP) =  -1040.48004555     A.U. after   33 cycles
 SCF Done:  E(UB3LYP) =  -1040.48004555     a.u. after    1 cycles

 The electronic state is 2-A.
 Alpha  occ. eigenvalues --  -88.75627 -18.97100 -14.22771 -14.22496 -14.18622
 Alpha  occ. eigenvalues --  -14.17791 -10.15350 -10.14265 -10.07760 -10.07173
 Alpha  occ. eigenvalues --  -10.06810 -10.06086 -10.05958 -10.05817 -10.05216
 Alpha  occ. eigenvalues --   -7.84260  -5.80557  -5.80227  -5.79805  -0.92298
 Alpha  occ. eigenvalues --   -0.86383  -0.80918  -0.79726  -0.79251  -0.70168
 Alpha  occ. eigenvalues --   -0.67168  -0.63854  -0.59826  -0.53355  -0.51588
 Alpha  occ. eigenvalues --   -0.48744  -0.46306  -0.45585  -0.43311  -0.40922
 Alpha  occ. eigenvalues --   -0.39296  -0.37164  -0.36413  -0.33754  -0.33095
 Alpha  occ. eigenvalues --   -0.30864  -0.30603  -0.30203  -0.28841  -0.28056
 Alpha  occ. eigenvalues --   -0.26819  -0.25250  -0.23480  -0.21900  -0.17516
 Alpha  occ. eigenvalues --   -0.17235  -0.16453  -0.16160  -0.15158  -0.14101
 Alpha  occ. eigenvalues --   -0.12515  -0.08774   0.03401
 Alpha virt. eigenvalues --    0.05880   0.06899   0.07572   0.09347   0.10210
 Alpha virt. eigenvalues --    0.10855   0.11261   0.11675   0.11976   0.12926
 Alpha virt. eigenvalues --    0.13891   0.14300   0.14524   0.15360   0.15702

  Beta  occ. eigenvalues --  -88.75616 -18.96996 -14.22703 -14.22466 -14.18703
  Beta  occ. eigenvalues --  -14.17923 -10.15241 -10.14040 -10.07717 -10.07021
  Beta  occ. eigenvalues --  -10.06849 -10.05994 -10.05604 -10.05509 -10.05126
  Beta  occ. eigenvalues --   -7.84250  -5.80545  -5.80224  -5.79774  -0.92095
  Beta  occ. eigenvalues --   -0.86211  -0.80698  -0.79612  -0.79154  -0.70021
  Beta  occ. eigenvalues --   -0.67028  -0.63481  -0.59457  -0.52826  -0.51373
  Beta  occ. eigenvalues --   -0.48530  -0.46095  -0.45455  -0.43221  -0.40755
  Beta  occ. eigenvalues --   -0.39184  -0.37022  -0.36090  -0.33564  -0.32862
  Beta  occ. eigenvalues --   -0.30612  -0.30159  -0.29660  -0.28651  -0.27959
  Beta  occ. eigenvalues --   -0.26058  -0.25080  -0.23305  -0.21394  -0.17129
  Beta  occ. eigenvalues --   -0.16898  -0.16444  -0.15856  -0.14950  -0.13128
  Beta  occ. eigenvalues --   -0.12529  -0.07756
  Beta virt. eigenvalues --    0.06469   0.07075   0.07875   0.08293   0.09684
  Beta virt. eigenvalues --    0.10180   0.10854   0.11657   0.11863   0.12176
  Beta virt. eigenvalues --    0.13253   0.13871   0.14440   0.14576   0.15359

 Mulliken charges and spin densities:
               1          2
     1  C   -0.157344  -0.029246
     2  C   -0.345584   0.044304
     3  C   -0.531313   0.261924
     4  N   -0.009991  -0.075816
     5  C   -0.598094   0.221297
     6  C    0.404704   0.026519
     7  C   -0.156569   0.084610
     8  O   -0.381817   0.037871
     9  N   -0.371216   0.016153
    10  C    0.534697  -0.083562
    11  C    0.273268   0.065675
    12  N   -0.099461  -0.069741
    13  C    0.154063  -0.106907
    14  S   -0.498718   0.147971
    15  N   -0.281459   0.050172
    16  H    0.046013   0.009744
    17  H    0.107389  -0.003708
    18  H    0.186774  -0.015972
    19  H    0.209569  -0.001466
    20  H    0.296081  -0.000377
    21  H    0.148685  -0.001326
    22  H   -0.099841   0.346556
    23  H    0.170165   0.075324
 Sum of Mulliken charges =  -1.00000   1.00000

 Dipole moment (field-independent basis, Debye):
    X=             -1.8757    Y=             -3.6358    Z=             -1.9984  Tot=              4.5531
 Quadrupole moment (field-independent basis, Debye-Ang):
   XX=           -165.7072   YY=           -112.9353   ZZ=           -103.7419
   XY=            -12.7428   XZ=             -8.4945   YZ=              3.0770

 Summary of Natural Population Analysis:

                                       Natural Population
                Natural  -----------------------------------------------
    Atom  No    Charge         Core      Valence    Rydberg      Total
 -----------------------------------------------------------------------
      C    1   -0.07857      0.99951     2.07208    0.00698     3.07857
      C    2   -0.05174      0.99948     2.04367    0.00859     3.05174
      C    3    0.10280      0.99956     1.88432    0.01332     2.89720
      N    4   -0.25643      0.99972     2.74464    0.01208     3.75643
      C    5    0.09692      0.99956     1.88936    0.01415     2.90308
      C    6   -0.08191      0.99946     2.07374    0.00871     3.08191
      C    7    0.34652      0.99967     1.63148    0.02233     2.65348
      O    8   -0.31693      0.99988     3.30986    0.00719     4.31693
      N    9   -0.40952      0.99971     2.90273    0.00708     3.90952
      C   10   -0.10940      0.99945     2.09826    0.01169     3.10940
      C   11    0.01500      0.99949     1.97145    0.01406     2.98500
      N   12   -0.29380      0.99964     2.78259    0.01157     3.79380
      C   13    0.16299      0.99964     1.81562    0.02175     2.83701
      S   14    0.15600      4.99945     2.82533    0.01923     7.84400
      N   15   -0.40066      0.99969     2.88976    0.01122     3.90066
      H   16    0.09584      0.00000     0.40255    0.00161     0.40416
      H   17    0.08145      0.00000     0.41690    0.00165     0.41855
      H   18    0.08998      0.00000     0.40879    0.00124     0.41002
      H   19    0.18879      0.00000     0.30971    0.00150     0.31121
      H   20    0.18769      0.00000     0.31037    0.00194     0.31231
      H   21    0.09305      0.00000     0.40597    0.00098     0.40695
      H   22    0.19129      0.00000     0.30557    0.00314     0.30871
      H   23    0.19066      0.00000     0.30692    0.00242     0.30934
 =======================================================================
   * Total *   -0.00000     18.99391    37.80165    0.20444    57.00000

 Normal termination of Gaussian 16 at Thu Dec 10 14:59:47 2020.
