 Gaussian 16, Revision A.03,

 -----------------------------------------------------------
 # opt freq B3LYP/6-31G(d) empiricaldispersion=gd3bj scf=xqc
 -----------------------------------------------------------

 ------------------------------
 CID_80941808_JID_4771_neutraal
 ------------------------------
 Symbolic Z-matrix:
 Charge =  0 Multiplicity = 1

 SCF Done:  E(RB3LYP) =  -639.420409567     A.U. after   14 cycles
 SCF Done:  E(RB3LYP) =  -639.424330948     A.U. after   12 cycles
 SCF Done:  E(RB3LYP) =  -639.425748859     A.U. after   12 cycles
 SCF Done:  E(RB3LYP) =  -639.426525709     A.U. after   12 cycles
 SCF Done:  E(RB3LYP) =  -639.426737281     A.U. after   11 cycles
 SCF Done:  E(RB3LYP) =  -639.426824953     A.U. after   11 cycles
 SCF Done:  E(RB3LYP) =  -639.426862206     A.U. after   10 cycles
 SCF Done:  E(RB3LYP) =  -639.426879505     A.U. after   10 cycles
 SCF Done:  E(RB3LYP) =  -639.426913100     A.U. after   11 cycles
 SCF Done:  E(RB3LYP) =  -639.426956639     A.U. after   12 cycles
 SCF Done:  E(RB3LYP) =  -639.427350851     A.U. after   12 cycles
 SCF Done:  E(RB3LYP) =  -639.427554632     A.U. after   12 cycles
 SCF Done:  E(RB3LYP) =  -639.427689272     A.U. after   11 cycles
 SCF Done:  E(RB3LYP) =  -639.427728810     A.U. after   11 cycles
 SCF Done:  E(RB3LYP) =  -639.427731921     A.U. after    9 cycles
 SCF Done:  E(RB3LYP) =  -639.427733902     A.U. after    8 cycles
 Optimization completed.
    -- Stationary point found.

 1\1\GINC-NODE102\FOpt\RB3LYP\6-31G(d)\C8H10N6\VSC10255\10-Dec-2020\0\\
 # opt freq B3LYP/6-31G(d) empiricaldispersion=gd3bj scf=xqc\\CID_80941
 808_JID_4771_neutraal\\0,1\C,0.6834378557,0.5318716351,0.3686286511\C,
 2.036717015,1.2237026362,0.1405756015\C,1.9570596308,2.2321929722,-0.9
 752320446\N,2.6215332523,1.9616557271,-2.1034383898\C,2.5044086837,2.8
 497638933,-3.1078006445\C,1.7086784229,4.0030206204,-2.9852050141\C,1.
 0914707206,4.1736147328,-1.7533922457\N,1.1971317518,3.3140181779,-0.7
 430332896\N,0.3057191383,5.3299567459,-1.5245926874\C,0.4350505068,6.5

 Normal termination of Gaussian 16 at Thu Dec 10 10:37:26 2020.

 --------------------------------------------------------------------
 #N Geom=AllCheck Guess=TCheck SCRF=Check GenChk RB3LYP/6-31G(d) Freq
 --------------------------------------------------------------------

 Structure from the checkpoint file:  "JID_4771.chk"
 ------------------------------
 CID_80941808_JID_4771_neutraal
 ------------------------------
 Charge =  0 Multiplicity = 1

 SCF Done:  E(RB3LYP) =  -639.427733902     A.U. after    1 cycles

  Exact polarizability: 161.102  -7.992 138.839   1.974   2.222  60.828
 Approx polarizability: 236.430 -14.264 225.692   2.910   5.005  94.164

                      1                      2                      3
                      A                      A                      A
 Frequencies --     22.7748                48.1992                86.1887
 Red. masses --      2.5683                 5.0794                 5.5294
 Frc consts  --      0.0008                 0.0070                 0.0242
 IR Inten    --      0.9467                 0.7040                 0.3136

                      4                      5                      6
                      A                      A                      A
 Frequencies --    113.3661               137.8182               205.9100
 Red. masses --      4.4821                 3.7002                 4.6470
 Frc consts  --      0.0339                 0.0414                 0.1161
 IR Inten    --      0.7162                 1.5064                 4.9976

                      7                      8                      9
                      A                      A                      A
 Frequencies --    220.1968               267.3643               291.3781
 Red. masses --      1.3003                 5.5944                 2.3418
 Frc consts  --      0.0371                 0.2356                 0.1171
 IR Inten    --      1.2180                 1.7399                 2.7547

                     10                     11                     12
                      A                      A                      A
 Frequencies --    307.8435               372.1035               372.8521
 Red. masses --      3.5368                 1.5420                 3.4263
 Frc consts  --      0.1975                 0.1258                 0.2806
 IR Inten    --      4.6632               223.5190                37.7465

                     13                     14                     15
                      A                      A                      A
 Frequencies --    388.3215               488.9019               541.7784
 Red. masses --      3.4405                 1.1456                 3.0976
 Frc consts  --      0.3057                 0.1613                 0.5357
 IR Inten    --     18.8638                77.7292                 6.1667

                     16                     17                     18
                      A                      A                      A
 Frequencies --    563.6946               592.9399               651.3081
 Red. masses --      5.6561                 4.2792                 4.7914
 Frc consts  --      1.0589                 0.8864                 1.1975
 IR Inten    --      7.1927                 6.4290                 3.3809

                     19                     20                     21
                      A                      A                      A
 Frequencies --    688.4716               702.3480               704.9234
 Red. masses --      3.5534                 9.8915                 3.1195
 Frc consts  --      0.9924                 2.8749                 0.9133
 IR Inten    --     22.8305                 3.1749                 3.5720

                     22                     23                     24
                      A                      A                      A
 Frequencies --    788.0432               818.2091               834.4773
 Red. masses --      1.8347                 1.3583                 2.8641
 Frc consts  --      0.6713                 0.5358                 1.1751
 IR Inten    --      0.7314                 0.6468                36.0610

                     25                     26                     27
                      A                      A                      A
 Frequencies --    838.4747               863.7330               896.6828
 Red. masses --      1.4150                 5.2526                 1.3849
 Frc consts  --      0.5861                 2.3088                 0.6561
 IR Inten    --     16.0250                55.2244                 5.3293

                     28                     29                     30
                      A                      A                      A
 Frequencies --    969.4077               971.6307              1002.4696
 Red. masses --      5.0128                 3.2356                 9.4626
 Frc consts  --      2.7755                 1.7998                 5.6028
 IR Inten    --     12.0302                 3.0490                10.1153

                     31                     32                     33
                      A                      A                      A
 Frequencies --   1016.8811              1041.4404              1076.8089
 Red. masses --      4.8443                 2.5702                 1.6547
 Frc consts  --      2.9513                 1.6425                 1.1305
 IR Inten    --     44.5753                 9.7688                23.9633

                     34                     35                     36
                      A                      A                      A
 Frequencies --   1094.1562              1131.4796              1149.5247
 Red. masses --      1.8539                 1.8587                 1.8845
 Frc consts  --      1.3076                 1.4020                 1.4672
 IR Inten    --     23.3503                 7.9409                 6.8371

                     37                     38                     39
                      A                      A                      A
 Frequencies --   1179.4618              1237.2831              1276.4871
 Red. masses --      2.2699                 1.4593                 4.6490
 Frc consts  --      1.8605                 1.3163                 4.4632
 IR Inten    --     16.9288                67.5528                43.1102

                     40                     41                     42
                      A                      A                      A
 Frequencies --   1284.2119              1314.9519              1328.9513
 Red. masses --      1.5968                 2.3856                 2.6621
 Frc consts  --      1.5516                 2.4303                 2.7701
 IR Inten    --      5.6058                58.1228                 8.8064

                     43                     44                     45
                      A                      A                      A
 Frequencies --   1352.9871              1376.8299              1422.3837
 Red. masses --      1.7078                 3.3605                 2.2511
 Frc consts  --      1.8420                 3.7533                 2.6833
 IR Inten    --     19.8118                 1.4021                49.1717

                     46                     47                     48
                      A                      A                      A
 Frequencies --   1431.5023              1456.6268              1495.5099
 Red. masses --      1.9901                 3.6927                 3.6809
 Frc consts  --      2.4028                 4.6163                 4.8505
 IR Inten    --     33.6312                93.0774                70.5035

                     49                     50                     51
                      A                      A                      A
 Frequencies --   1503.2407              1511.2462              1527.1338
 Red. masses --      2.5559                 1.4470                 1.0524
 Frc consts  --      3.4029                 1.9472                 1.4461
 IR Inten    --     61.3301                13.3560                13.3028

                     52                     53                     54
                      A                      A                      A
 Frequencies --   1541.4043              1563.5946              1621.4421
 Red. masses --      1.0930                 4.6281                 5.4222
 Frc consts  --      1.5300                 6.6665                 8.3990
 IR Inten    --      5.6148               148.6370               278.9247

                     55                     56                     57
                      A                      A                      A
 Frequencies --   1640.1477              1676.9915              3055.7600
 Red. masses --      3.9290                 1.6674                 1.0358
 Frc consts  --      6.2272                 2.7628                 5.6987
 IR Inten    --    228.9022               492.8021                29.1380

                     58                     59                     60
                      A                      A                      A
 Frequencies --   3066.6165              3118.2728              3126.6627
 Red. masses --      1.0631                 1.0993                 1.1039
 Frc consts  --      5.8903                 6.2978                 6.3584
 IR Inten    --     14.7478                16.7280                23.2012

                     61                     62                     63
                      A                      A                      A
 Frequencies --   3145.2621              3223.9469              3281.0339
 Red. masses --      1.1028                 1.0924                 1.0955
 Frc consts  --      6.4277                 6.6898                 6.9484
 IR Inten    --     29.0981                 4.5138                 5.6941

                     64                     65                     66
                      A                      A                      A
 Frequencies --   3285.8314              3590.5499              3708.7021
 Red. masses --      1.0992                 1.0461                 1.1027
 Frc consts  --      6.9925                 7.9461                 8.9360
 IR Inten    --      0.1841                66.9532                32.3603

 - Thermochemistry -
 -------------------
 Temperature   298.150 Kelvin.  Pressure   1.00000 Atm.
 Atom     1 has atomic number  6 and mass  12.00000

 Molecular mass:   190.09669 amu.
 Principal axes and moments of inertia in atomic units:
                           1         2         3
     Eigenvalues --  1635.229953752.579415217.78620
           X            0.99960   0.02805  -0.00266
           Y           -0.02805   0.99961  -0.00011
           Z            0.00265   0.00018   1.00000
 This molecule is an asymmetric top.
 Rotational symmetry number  1.
 Warning -- assumption of classical behavior for rotation
           may cause significant error
 Rotational temperatures (Kelvin)      0.05297     0.02308     0.01660
 Rotational constants (GHZ):           1.10366     0.48093     0.34588
 Zero-point vibrational energy     500081.7 (Joules/Mol)
                                  119.52239 (Kcal/Mol)
 Warning -- explicit consideration of  17 degrees of freedom as
           vibrations may cause significant error
 Vibrational temperatures:     32.77    69.35   124.01   163.11   198.29
          (Kelvin)            296.26   316.81   384.68   419.23   442.92
                              535.37   536.45   558.71   703.42   779.50
                              811.03   853.11   937.09   990.56  1010.52
                             1014.23  1133.82  1177.22  1200.63  1206.38
                             1242.72  1290.13  1394.76  1397.96  1442.33
                             1463.07  1498.40  1549.29  1574.25  1627.95
                             1653.91  1696.98  1780.17  1836.58  1847.69
                             1891.92  1912.06  1946.65  1980.95  2046.49
                             2059.61  2095.76  2151.71  2162.83  2174.35
                             2197.20  2217.74  2249.66  2332.89  2359.81
                             2412.82  4396.56  4412.18  4486.50  4498.57
                             4525.33  4638.54  4720.68  4727.58  5166.00
                             5336.00

 Zero-point correction=                           0.190471 (Hartree/Particle)
 Thermal correction to Energy=                    0.202635
 Thermal correction to Enthalpy=                  0.203579
 Thermal correction to Gibbs Free Energy=         0.150449
 Sum of electronic and zero-point Energies=           -639.237263
 Sum of electronic and thermal Energies=              -639.225099
 Sum of electronic and thermal Enthalpies=            -639.224155
 Sum of electronic and thermal Free Energies=         -639.277285

                     E (Thermal)             CV                S
                      KCal/Mol        Cal/Mol-Kelvin    Cal/Mol-Kelvin
 Total                  127.155             45.586            111.822
 Electronic               0.000              0.000              0.000
 Translational            0.889              2.981             41.633
 Rotational               0.889              2.981             31.838
 Vibrational            125.378             39.624             38.351
 Vibration     1          0.593              1.985              6.376
 Vibration     2          0.595              1.978              4.890
 Vibration     3          0.601              1.959              3.745
 Vibration     4          0.607              1.938              3.210
 Vibration     5          0.614              1.916              2.834
 Vibration     6          0.640              1.831              2.080
 Vibration     7          0.647              1.810              1.957
 Vibration     8          0.672              1.733              1.613
 Vibration     9          0.687              1.690              1.466
 Vibration    10          0.698              1.659              1.374
 Vibration    11          0.744              1.529              1.071
 Vibration    12          0.744              1.528              1.068
 Vibration    13          0.756              1.495              1.007
 Vibration    14          0.845              1.275              0.686
 Vibration    15          0.897              1.158              0.561
 Vibration    16          0.919              1.110              0.517
 Vibration    17          0.950              1.047              0.462

                           ! Non-Optimized Parameters !

 1\1\GINC-NODE102\Freq\RB3LYP\6-31G(d)\C8H10N6\VSC10255\10-Dec-2020\0\\
 #N Geom=AllCheck Guess=TCheck SCRF=Check GenChk RB3LYP/6-31G(d) Freq\\
 CID_80941808_JID_4771_neutraal\\0,1\C,0.6834378557,0.5318716351,0.3686
 286511\C,2.036717015,1.2237026362,0.1405756015\C,1.9570596308,2.232192
 9722,-0.9752320446\N,2.6215332523,1.9616557271,-2.1034383898\C,2.50440
 86837,2.8497638933,-3.1078006445\C,1.7086784229,4.0030206204,-2.985205
 0141\C,1.0914707206,4.1736147328,-1.7533922457\N,1.1971317518,3.314018
 1779,-0.7430332896\N,0.3057191383,5.3299567459,-1.5245926874\C,0.43505

 Normal termination of Gaussian 16 at Thu Dec 10 10:43:49 2020.

 ----------------------------------------------------------------------
 # B3LYP/6-311++G(d,p) empiricaldispersion=gd3bj scf=xqc pop=npa geom=c
 heck
 ----------------------------------------------------------------------

 --------------------------------------
 CID_80941808_JID_4771_Energie_neutraal
 --------------------------------------
 Structure from the checkpoint file:  "JID_4771.chk"
 Charge =  0 Multiplicity = 1

 SCF Done:  E(RB3LYP) =  -639.602244546     A.U. after   15 cycles
 Normal termination of Gaussian 16 at Thu Dec 10 10:46:43 2020.

 ----------------------------------------------------------------------
 # B3LYP/6-311++G(d,p) empiricaldispersion=gd3bj scf=xqc pop=npa geom=c
 heck
 ----------------------------------------------------------------------

 ------------------------------------
 CID_80941808_JID_4771_Energie_kation
 ------------------------------------
 Structure from the checkpoint file:  "JID_4771.chk"
 Charge =  1 Multiplicity = 2

 SCF Done:  E(UB3LYP) =  -639.277465015     A.U. after   28 cycles
 Normal termination of Gaussian 16 at Thu Dec 10 10:54:03 2020.
 Gaussian 16:  ES64L-G16RevA.03 25-Dec-2016

 -----------------------------------
 CID_80941808_JID_4771_Energie_anion
 -----------------------------------
 Structure from the checkpoint file:  "JID_4771.chk"
 Charge = -1 Multiplicity = 2

                         Standard orientation:
 ---------------------------------------------------------------------
 Center     Atomic      Atomic             Coordinates (Angstroms)
 Number     Number       Type             X           Y           Z
 ---------------------------------------------------------------------
      1          6           0       -2.659643   -2.642771    0.597144
      2          6           0       -2.668648   -1.664470   -0.588119
      3          6           0       -1.744787   -0.499823   -0.346244
      4          7           0       -2.298906    0.703603   -0.166571
      5          6           0       -1.463908    1.726515    0.093481
      6          6           0       -0.073093    1.539341    0.187390
      7          6           0        0.371327    0.244367   -0.042706
      8          7           0       -0.433035   -0.781983   -0.308228
      9          7           0        1.761102   -0.028551   -0.012320
     10          6           0        2.795554    0.811999   -0.303943
     11          7           0        3.946414    0.188664   -0.169047
     12          6           0        3.558412   -1.067172    0.220008
     13          7           0        2.255937   -1.256290    0.323924
     14          7           0       -2.039755    2.956067    0.240806
     15          1           0       -1.644243   -3.006558    0.779568
     16          1           0       -3.307865   -3.501431    0.393344
     17          1           0       -3.018654   -2.153830    1.509715
     18          1           0       -2.333178   -2.188822   -1.490551
     19          1           0       -3.675495   -1.278619   -0.768137
     20          1           0        0.597722    2.349452    0.447660
     21          1           0        2.652082    1.831464   -0.631467
     22          1           0        4.262468   -1.859832    0.432132
     23          1           0       -3.042695    2.958318    0.365366
     24          1           0       -1.523715    3.691376    0.700348
 ---------------------------------------------------------------------

 SCF Done:  E(UB3LYP) =  -639.606097882     A.U. after   31 cycles

 The electronic state is 2-A.
 Alpha  occ. eigenvalues --  -14.27067 -14.21174 -14.20432 -14.17881 -14.16846
 Alpha  occ. eigenvalues --  -14.16474 -10.12871 -10.10799 -10.10333 -10.10267
 Alpha  occ. eigenvalues --  -10.09050 -10.05425 -10.05273 -10.04027  -0.95067
 Alpha  occ. eigenvalues --   -0.86260  -0.81332  -0.77780  -0.73598  -0.71005
 Alpha  occ. eigenvalues --   -0.66895  -0.62682  -0.55420  -0.54198  -0.50283
 Alpha  occ. eigenvalues --   -0.48684  -0.46680  -0.43293  -0.42121  -0.38236
 Alpha  occ. eigenvalues --   -0.36125  -0.34701  -0.34182  -0.33104  -0.31956
 Alpha  occ. eigenvalues --   -0.31408  -0.29922  -0.29460  -0.26848  -0.24777
 Alpha  occ. eigenvalues --   -0.23887  -0.23070  -0.20532  -0.18762  -0.17115
 Alpha  occ. eigenvalues --   -0.16028  -0.15769  -0.13615  -0.12504  -0.11424
 Alpha  occ. eigenvalues --    0.04405
 Alpha virt. eigenvalues --    0.06608   0.07961   0.09433   0.09925   0.10371
 Alpha virt. eigenvalues --    0.10561   0.11241   0.11981   0.12484   0.12996
 Alpha virt. eigenvalues --    0.14078   0.14588   0.14790   0.15940   0.16100

  Beta  occ. eigenvalues --  -14.27105 -14.21140 -14.20260 -14.17844 -14.16904
  Beta  occ. eigenvalues --  -14.16235 -10.12898 -10.10443 -10.10198 -10.10054
  Beta  occ. eigenvalues --  -10.09031 -10.05436 -10.05256 -10.03893  -0.94892
  Beta  occ. eigenvalues --   -0.86009  -0.81175  -0.77558  -0.73280  -0.70755
  Beta  occ. eigenvalues --   -0.66761  -0.62438  -0.55025  -0.54005  -0.50178
  Beta  occ. eigenvalues --   -0.48580  -0.46425  -0.43178  -0.41960  -0.38126
  Beta  occ. eigenvalues --   -0.35940  -0.34149  -0.33981  -0.32885  -0.31854
  Beta  occ. eigenvalues --   -0.31271  -0.29560  -0.29302  -0.26695  -0.24705
  Beta  occ. eigenvalues --   -0.23816  -0.22467  -0.20332  -0.18162  -0.16961
  Beta  occ. eigenvalues --   -0.15717  -0.14865  -0.12953  -0.12280  -0.10801
  Beta virt. eigenvalues --    0.07448   0.07980   0.09303   0.09628   0.10065
  Beta virt. eigenvalues --    0.10273   0.10728   0.11440   0.12193   0.12477
  Beta virt. eigenvalues --    0.13546   0.14400   0.14919   0.15023   0.15948

 Mulliken charges and spin densities:
               1          2
     1  C   -0.424492  -0.032119
     2  C   -0.133689  -0.063770
     3  C   -0.318934   0.046240
     4  N   -0.100876   0.062178
     5  C    0.238689  -0.523015
     6  C    0.383155   0.346899
     7  C   -0.278381  -0.279115
     8  N   -0.072716  -0.007879
     9  N    0.128166  -0.031930
    10  C   -0.051932   0.146670
    11  N   -0.199359   0.012006
    12  C   -0.112451   0.005089
    13  N   -0.116139   0.087787
    14  N   -0.346060   0.030474
    15  H    0.167096   0.002810
    16  H    0.035897   0.080084
    17  H    0.114347   0.009376
    18  H    0.137747   0.009650
    19  H    0.091585   0.035458
    20  H   -0.274714   0.442961
    21  H    0.144096  -0.021090
    22  H    0.121591  -0.000761
    23  H    0.155198   0.097054
    24  H   -0.287821   0.544942
 Sum of Mulliken charges =  -1.00000   1.00000

 Dipole moment (field-independent basis, Debye):
    X=             -2.0632    Y=             -1.9351    Z=             -0.8559  Tot=              2.9553
 Quadrupole moment (field-independent basis, Debye-Ang):
   XX=           -127.5849   YY=           -114.8151   ZZ=            -95.3746
   XY=              1.6790   XZ=             -0.5320   YZ=             -4.0229

 Summary of Natural Population Analysis:

                                       Natural Population
                Natural  -----------------------------------------------
    Atom  No    Charge         Core      Valence    Rydberg      Total
 -----------------------------------------------------------------------
      C    1   -0.28073      0.99967     2.27708    0.00399     3.28073
      C    2   -0.20610      0.99960     2.19787    0.00862     3.20610
      C    3    0.24695      0.99962     1.73581    0.01762     2.75305
      N    4   -0.26152      0.99964     2.75178    0.01010     3.76152
      C    5    0.20862      0.99956     1.77646    0.01537     2.79138
      C    6   -0.15969      0.99948     2.15166    0.00855     3.15969
      C    7    0.26331      0.99950     1.72215    0.01504     2.73669
      N    8   -0.27756      0.99964     2.76919    0.00873     3.77756
      N    9   -0.12405      0.99962     2.61154    0.01288     3.62405
      C   10    0.14187      0.99966     1.83930    0.01917     2.85813
      N   11   -0.26839      0.99973     2.75917    0.00949     3.76839
      C   12    0.07827      0.99972     1.90273    0.01929     2.92173
      N   13   -0.12236      0.99973     2.61285    0.00978     3.62236
      N   14   -0.39367      0.99970     2.88422    0.00976     3.89367
      H   15    0.10629      0.00000     0.39242    0.00130     0.39371
      H   16    0.08942      0.00000     0.40928    0.00131     0.41058
      H   17    0.09469      0.00000     0.40424    0.00108     0.40531
      H   18    0.10061      0.00000     0.39805    0.00134     0.39939
      H   19    0.09964      0.00000     0.39891    0.00145     0.40036
      H   20    0.10461      0.00000     0.39415    0.00124     0.39539
      H   21    0.09319      0.00000     0.40525    0.00156     0.40681
      H   22    0.08445      0.00000     0.41465    0.00090     0.41555
      H   23    0.19051      0.00000     0.30717    0.00232     0.30949
      H   24    0.19165      0.00000     0.30415    0.00420     0.30835
 =======================================================================
   * Total *   -0.00000     13.99486    35.82007    0.18507    50.00000

 Normal termination of Gaussian 16 at Thu Dec 10 11:02:44 2020.
