 Gaussian 16, Revision A.03,

 -----------------------------------------------------------
 # opt freq B3LYP/6-31G(d) empiricaldispersion=gd3bj scf=xqc
 -----------------------------------------------------------

 ------------------------------
 CID_70423622_JID_2694_neutraal
 ------------------------------
 Symbolic Z-matrix:
 Charge =  0 Multiplicity = 1

 SCF Done:  E(RB3LYP) =  -962.951620105     A.U. after   15 cycles
 SCF Done:  E(RB3LYP) =  -962.961338596     A.U. after   13 cycles
 SCF Done:  E(RB3LYP) =  -962.961334205     A.U. after   13 cycles
 SCF Done:  E(RB3LYP) =  -962.963448770     A.U. after   13 cycles
 SCF Done:  E(RB3LYP) =  -962.964637280     A.U. after   12 cycles
 SCF Done:  E(RB3LYP) =  -962.965114930     A.U. after   12 cycles
 SCF Done:  E(RB3LYP) =  -962.965378371     A.U. after   12 cycles
 SCF Done:  E(RB3LYP) =  -962.965578883     A.U. after   12 cycles
 SCF Done:  E(RB3LYP) =  -962.965728168     A.U. after   11 cycles
 SCF Done:  E(RB3LYP) =  -962.965798513     A.U. after   11 cycles
 SCF Done:  E(RB3LYP) =  -962.965912145     A.U. after   12 cycles
 SCF Done:  E(RB3LYP) =  -962.965928126     A.U. after   10 cycles
 SCF Done:  E(RB3LYP) =  -962.965929739     A.U. after   10 cycles
 SCF Done:  E(RB3LYP) =  -962.965930004     A.U. after    8 cycles
 SCF Done:  E(RB3LYP) =  -962.965930021     A.U. after    8 cycles
 Optimization completed.
    -- Stationary point found.
 Normal termination of Gaussian 16 at Wed Dec  9 17:55:03 2020.

 --------------------------------------------------------------------
 #N Geom=AllCheck Guess=TCheck SCRF=Check GenChk RB3LYP/6-31G(d) Freq
 --------------------------------------------------------------------

 Structure from the checkpoint file:  "JID_2694.chk"
 ------------------------------
 CID_70423622_JID_2694_neutraal
 ------------------------------
 Charge =  0 Multiplicity = 1

 SCF Done:  E(RB3LYP) =  -962.965930021     A.U. after    1 cycles

  Exact polarizability: 111.989   2.054  98.364   7.191  -2.317  72.009
 Approx polarizability: 147.594   2.249 165.612  20.306  -9.289 119.866

                      1                      2                      3
                      A                      A                      A
 Frequencies --     22.4031                54.7804                82.1033
 Red. masses --      5.3055                 3.6013                 6.4090
 Frc consts  --      0.0016                 0.0064                 0.0255
 IR Inten    --      0.3622                 1.2895                 0.8854

                      4                      5                      6
                      A                      A                      A
 Frequencies --    116.5024               128.0346               178.9166
 Red. masses --      4.9240                 3.8561                 8.0739
 Frc consts  --      0.0394                 0.0372                 0.1523
 IR Inten    --      8.6277                 1.6424                 1.0724

                      7                      8                      9
                      A                      A                      A
 Frequencies --    192.2972               228.6485               264.1621
 Red. masses --      3.3331                 1.4479                 1.1121
 Frc consts  --      0.0726                 0.0446                 0.0457
 IR Inten    --      4.0856                 2.7054                49.1283

                     10                     11                     12
                      A                      A                      A
 Frequencies --    290.0045               325.5442               347.6495
 Red. masses --      2.3496                 7.4550                 3.6814
 Frc consts  --      0.1164                 0.4655                 0.2621
 IR Inten    --      5.3350                 2.9761                17.7417

                     13                     14                     15
                      A                      A                      A
 Frequencies --    383.1666               449.9013               502.6369
 Red. masses --      5.0416                 3.2754                 7.9657
 Frc consts  --      0.4361                 0.3906                 1.1857
 IR Inten    --      0.7014                 6.0728                 9.3685

                     16                     17                     18
                      A                      A                      A
 Frequencies --    593.4867               667.3866               714.4974
 Red. masses --      3.7397                 7.8386                 5.4679
 Frc consts  --      0.7761                 2.0570                 1.6446
 IR Inten    --     12.5354                 4.5910                 3.9314

                     19                     20                     21
                      A                      A                      A
 Frequencies --    731.5404               788.5749               826.4898
 Red. masses --      5.9227                 2.5822                 1.5821
 Frc consts  --      1.8674                 0.9461                 0.6367
 IR Inten    --      0.4736                15.1033                 2.2008

                     22                     23                     24
                      A                      A                      A
 Frequencies --    894.0219               938.2454               949.7535
 Red. masses --      3.4688                 3.1210                 2.2457
 Frc consts  --      1.6335                 1.6187                 1.1935
 IR Inten    --     17.2672                 1.1219                 5.9933

                     25                     26                     27
                      A                      A                      A
 Frequencies --    976.5632               989.4616              1045.2904
 Red. masses --      1.8000                 9.1283                 3.5818
 Frc consts  --      1.0114                 5.2655                 2.3058
 IR Inten    --     16.0763                 3.2214                37.7973

                     28                     29                     30
                      A                      A                      A
 Frequencies --   1085.0419              1113.9710              1131.3367
 Red. masses --      3.5858                 6.8138                 1.9568
 Frc consts  --      2.4873                 4.9818                 1.4757
 IR Inten    --     12.5684                11.5154                24.9680

                     31                     32                     33
                      A                      A                      A
 Frequencies --   1178.8730              1195.4790              1210.8856
 Red. masses --      5.4570                 1.5901                 1.6616
 Frc consts  --      4.4682                 1.3389                 1.4354
 IR Inten    --      5.6410               111.7296                 8.2608

                     34                     35                     36
                      A                      A                      A
 Frequencies --   1260.4706              1341.3276              1350.7158
 Red. masses --      2.2717                 1.1661                 6.6905
 Frc consts  --      2.1265                 1.2361                 7.1918
 IR Inten    --    300.4660                 7.3538                13.0162

                     37                     38                     39
                      A                      A                      A
 Frequencies --   1376.6479              1424.2005              1437.3990
 Red. masses --      1.9108                 1.4052                 5.1783
 Frc consts  --      2.1336                 1.6794                 6.3036
 IR Inten    --    144.4373                28.5020                30.7818

                     40                     41                     42
                      A                      A                      A
 Frequencies --   1446.7305              1471.2059              1516.1382
 Red. masses --      1.3612                 1.1014                 1.0481
 Frc consts  --      1.6786                 1.4045                 1.4195
 IR Inten    --     12.8444                20.6185                 8.3756

                     43                     44                     45
                      A                      A                      A
 Frequencies --   1519.9726              1537.0493              1579.4548
 Red. masses --      1.0845                 1.0599                 9.9962
 Frc consts  --      1.4762                 1.4754                14.6927
 IR Inten    --      4.9002                 7.1969                18.2282

                     46                     47                     48
                      A                      A                      A
 Frequencies --   1807.0762              2661.7835              3064.9123
 Red. masses --     10.7405                 1.0385                 1.0687
 Frc consts  --     20.6646                 4.3352                 5.9146
 IR Inten    --    193.5407                 9.1140                 3.2064

                     49                     50                     51
                      A                      A                      A
 Frequencies --   3065.9372              3101.6003              3134.4207
 Red. masses --      1.0362                 1.0593                 1.1008
 Frc consts  --      5.7389                 6.0040                 6.3722
 IR Inten    --     12.1362                21.5204                21.8355

                     52                     53                     54
                      A                      A                      A
 Frequencies --   3145.0344              3156.1030              3166.1947
 Red. masses --      1.1048                 1.0939                 1.1088
 Frc consts  --      6.4384                 6.4201                 6.5490
 IR Inten    --      3.5765                 0.3325                25.4046

 - Thermochemistry -
 -------------------
 Temperature   298.150 Kelvin.  Pressure   1.00000 Atm.
 Atom     1 has atomic number  6 and mass  12.00000

 Molecular mass:   188.03680 amu.
 Principal axes and moments of inertia in atomic units:
                           1         2         3
     Eigenvalues --  1172.689503860.568294465.53218
           X            0.99989  -0.00789  -0.01219
           Y            0.00784   0.99996  -0.00462
           Z            0.01223   0.00452   0.99992
 This molecule is an asymmetric top.
 Rotational symmetry number  1.
 Warning -- assumption of classical behavior for rotation
           may cause significant error
 Rotational temperatures (Kelvin)      0.07386     0.02244     0.01940
 Rotational constants (GHZ):           1.53898     0.46748     0.40415
 Zero-point vibrational energy     383774.1 (Joules/Mol)
                                   91.72422 (Kcal/Mol)
 Warning -- explicit consideration of  16 degrees of freedom as
           vibrations may cause significant error
 Vibrational temperatures:     32.23    78.82   118.13   167.62   184.21
          (Kelvin)            257.42   276.67   328.97   380.07   417.25
                              468.39   500.19   551.29   647.31   723.18
                              853.89   960.22  1028.00  1052.52  1134.58
                             1189.13  1286.30  1349.93  1366.48  1405.06
                             1423.61  1503.94  1561.13  1602.76  1627.74
                             1696.14  1720.03  1742.19  1813.54  1929.87
                             1943.38  1980.69  2049.11  2068.10  2081.52
                             2116.74  2181.38  2186.90  2211.47  2272.48
                             2599.98  3829.71  4409.73  4411.20  4462.51
                             4509.73  4525.00  4540.93  4555.45

 Zero-point correction=                           0.146172 (Hartree/Particle)
 Thermal correction to Energy=                    0.158141
 Thermal correction to Enthalpy=                  0.159085
 Thermal correction to Gibbs Free Energy=         0.106151
 Sum of electronic and zero-point Energies=           -962.819758
 Sum of electronic and thermal Energies=              -962.807789
 Sum of electronic and thermal Enthalpies=            -962.806845
 Sum of electronic and thermal Free Energies=         -962.859779

                     E (Thermal)             CV                S
                      KCal/Mol        Cal/Mol-Kelvin    Cal/Mol-Kelvin
 Total                   99.235             41.943            111.410
 Electronic               0.000              0.000              0.000
 Translational            0.889              2.981             41.600
 Rotational               0.889              2.981             31.381
 Vibrational             97.458             35.981             38.429
 Vibration     1          0.593              1.985              6.409
 Vibration     2          0.596              1.976              4.637
 Vibration     3          0.600              1.961              3.840
 Vibration     4          0.608              1.936              3.158
 Vibration     5          0.611              1.925              2.975
 Vibration     6          0.629              1.868              2.340
 Vibration     7          0.634              1.851              2.206
 Vibration     8          0.651              1.797              1.890
 Vibration     9          0.671              1.739              1.634
 Vibration    10          0.686              1.692              1.474
 Vibration    11          0.710              1.624              1.282
 Vibration    12          0.725              1.580              1.177
 Vibration    13          0.752              1.506              1.027
 Vibration    14          0.809              1.361              0.796
 Vibration    15          0.858              1.244              0.652
 Vibration    16          0.951              1.046              0.461

 Optimization completed.
    -- Stationary point found.
 Normal termination of Gaussian 16 at Wed Dec  9 17:59:06 2020.

 ----------------------------------------------------------------------
 # B3LYP/6-311++G(d,p) empiricaldispersion=gd3bj scf=xqc pop=npa geom=c
 heck
 ----------------------------------------------------------------------

 --------------------------------------
 CID_70423622_JID_2694_Energie_neutraal
 --------------------------------------
 Structure from the checkpoint file:  "JID_2694.chk"
 Charge =  0 Multiplicity = 1

 SCF Done:  E(RB3LYP) =  -963.155253426     A.U. after   15 cycles
 Normal termination of Gaussian 16 at Wed Dec  9 18:01:21 2020.

 ----------------------------------------------------------------------
 # B3LYP/6-311++G(d,p) empiricaldispersion=gd3bj scf=xqc pop=npa geom=c
 heck
 ----------------------------------------------------------------------

 ------------------------------------
 CID_70423622_JID_2694_Energie_kation
 ------------------------------------
 Structure from the checkpoint file:  "JID_2694.chk"
 Charge =  1 Multiplicity = 2

 SCF Done:  E(UB3LYP) =  -962.796045213     A.U. after   28 cycles
 Normal termination of Gaussian 16 at Wed Dec  9 18:04:59 2020.
 Gaussian 16:  ES64L-G16RevA.03 25-Dec-2016

 ----------------------------------------------------------------------
 # B3LYP/6-311++G(d,p) empiricaldispersion=gd3bj scf=xqc pop=npa geom=c
 heck
 ----------------------------------------------------------------------

 -----------------------------------
 CID_70423622_JID_2694_Energie_anion
 -----------------------------------
 Structure from the checkpoint file:  "JID_2694.chk"
 Charge = -1 Multiplicity = 2

                         Standard orientation:
 ---------------------------------------------------------------------
 Center     Atomic      Atomic             Coordinates (Angstroms)
 Number     Number       Type             X           Y           Z
 ---------------------------------------------------------------------
      1          6           0        3.977881   -0.597394   -1.012578
      2          6           0        3.594943    0.365212    0.097984
      3          8           0        2.448900   -0.130513    0.844298
      4          6           0        1.242831    0.113037    0.320434
      5          8           0        1.043247    0.716966   -0.714483
      6          6           0        0.146735   -0.437457    1.227053
      7          6           0       -1.102548   -0.738275    0.478327
      8          7           0       -1.561645   -1.933779    0.181680
      9          7           0       -2.712961   -1.732978   -0.534806
     10          7           0       -2.956329   -0.480532   -0.694793
     11          7           0       -1.946569    0.185552   -0.054923
     12         16           0       -1.901541    1.906626    0.026873
     13          1           0        4.171757   -1.596410   -0.610115
     14          1           0        4.887407   -0.242768   -1.509796
     15          1           0        3.181206   -0.662431   -1.758199
     16          1           0        4.380201    0.452029    0.851281
     17          1           0        3.351790    1.355340   -0.293993
     18          1           0        0.494683   -1.347173    1.719063
     19          1           0       -0.041947    0.314462    2.004371
     20          1           0       -0.854134    2.030728   -0.818529
 ---------------------------------------------------------------------

 SCF Done:  E(UB3LYP) =  -963.151407458     A.U. after   33 cycles
 SCF Done:  E(UB3LYP) =  -963.151407458     a.u. after    1 cycles

 The electronic state is 2-A.
 Alpha  occ. eigenvalues --  -88.76397 -19.07570 -19.01558 -14.29522 -14.26601
 Alpha  occ. eigenvalues --  -14.25553 -14.22683 -10.20712 -10.14453 -10.13269
 Alpha  occ. eigenvalues --  -10.10987 -10.06905  -7.84809  -5.81418  -5.80762
 Alpha  occ. eigenvalues --   -5.80100  -1.02052  -1.01572  -0.92808  -0.83102
 Alpha  occ. eigenvalues --   -0.78938  -0.69718  -0.66154  -0.63889  -0.56729
 Alpha  occ. eigenvalues --   -0.53943  -0.50575  -0.46332  -0.42987  -0.41324
 Alpha  occ. eigenvalues --   -0.39165  -0.38851  -0.37880  -0.34724  -0.34499
 Alpha  occ. eigenvalues --   -0.33288  -0.30702  -0.29187  -0.28298  -0.27785
 Alpha  occ. eigenvalues --   -0.25828  -0.25118  -0.21771  -0.20462  -0.19754
 Alpha  occ. eigenvalues --   -0.18962  -0.18751  -0.18246  -0.14693   0.04451
 Alpha virt. eigenvalues --    0.05897   0.07411   0.08535   0.09054   0.09244
 Alpha virt. eigenvalues --    0.09458   0.11068   0.11448   0.12096   0.12541
 Alpha virt. eigenvalues --    0.12934   0.14148   0.15074   0.15449   0.16202

  Beta  occ. eigenvalues --  -88.76314 -19.07563 -19.01485 -14.29222 -14.26491
  Beta  occ. eigenvalues --  -14.25517 -14.22701 -10.20599 -10.14388 -10.13244
  Beta  occ. eigenvalues --  -10.11003 -10.06868  -7.84727  -5.81175  -5.80711
  Beta  occ. eigenvalues --   -5.80048  -1.01874  -1.01473  -0.92704  -0.82731
  Beta  occ. eigenvalues --   -0.78798  -0.69612  -0.66021  -0.63465  -0.56630
  Beta  occ. eigenvalues --   -0.53758  -0.50374  -0.46202  -0.42783  -0.40977
  Beta  occ. eigenvalues --   -0.38928  -0.38617  -0.37552  -0.34504  -0.34363
  Beta  occ. eigenvalues --   -0.33211  -0.30609  -0.28804  -0.28120  -0.27524
  Beta  occ. eigenvalues --   -0.25538  -0.25058  -0.21580  -0.20206  -0.19521
  Beta  occ. eigenvalues --   -0.18818  -0.18617  -0.18023  -0.14438
  Beta virt. eigenvalues --    0.07118   0.07823   0.08643   0.09095   0.09427
  Beta virt. eigenvalues --    0.09896   0.10206   0.11386   0.11770   0.12288
  Beta virt. eigenvalues --    0.12576   0.13104   0.14310   0.15003   0.15514

 Mulliken charges and spin densities:
               1          2
     1  C    0.580555  -0.935831
     2  C    0.275131  -0.443976
     3  O   -0.031035   0.035722
     4  C    0.132264  -0.082965
     5  O   -0.295145   0.025474
     6  C   -0.450277  -0.041652
     7  C   -0.080686  -0.061251
     8  N   -0.127537   0.002620
     9  N    0.009025  -0.041626
    10  N    0.092750   0.111308
    11  N   -0.061908   0.021381
    12  S   -0.299007   0.336184
    13  H    0.093798   0.041155
    14  H   -0.638619   0.796620
    15  H   -0.013825   0.179718
    16  H   -0.698933   0.868701
    17  H    0.087243   0.082992
    18  H    0.210835   0.003761
    19  H    0.184986   0.017962
    20  H    0.030385   0.083702
 Sum of Mulliken charges =  -1.00000   1.00000

 Dipole moment (field-independent basis, Debye):
    X=             -2.4601    Y=             -0.0619    Z=              2.8719  Tot=              3.7821
 Quadrupole moment (field-independent basis, Debye-Ang):
   XX=           -167.7515   YY=           -109.7229   ZZ=            -93.5969
   XY=             -6.5010   XZ=             -0.7116   YZ=             -0.9185

 Summary of Natural Population Analysis:

                                       Natural Population
                Natural  -----------------------------------------------
    Atom  No    Charge         Core      Valence    Rydberg      Total
 -----------------------------------------------------------------------
      C    1   -0.30014      0.99966     2.29513    0.00535     3.30014
      C    2   -0.01641      0.99958     2.00460    0.01223     3.01641
      O    3   -0.28072      0.99986     3.27239    0.00847     4.28072
      C    4    0.42636      0.99971     1.54659    0.02734     2.57364
      O    5   -0.30825      0.99987     3.30278    0.00561     4.30825
      C    6   -0.26265      0.99955     2.25288    0.01022     3.26265
      C    7    0.19682      0.99958     1.78693    0.01667     2.80318
      N    8   -0.17505      0.99968     2.66245    0.01292     3.67505
      N    9   -0.04710      0.99981     2.52763    0.01966     3.54710
      N   10   -0.02242      0.99977     2.50633    0.01632     3.52242
      N   11   -0.16151      0.99958     2.64364    0.01829     3.66151
      S   12    0.12562      4.99961     2.85332    0.02145     7.87438
      H   13    0.09950      0.00000     0.39954    0.00096     0.40050
      H   14    0.10708      0.00000     0.39018    0.00274     0.39292
      H   15    0.10540      0.00000     0.39355    0.00105     0.39460
      H   16    0.09333      0.00000     0.40438    0.00229     0.40667
      H   17    0.09551      0.00000     0.40316    0.00132     0.40449
      H   18    0.12341      0.00000     0.37532    0.00127     0.37659
      H   19    0.12622      0.00000     0.37273    0.00105     0.37378
      H   20    0.07499      0.00000     0.42138    0.00363     0.42501
 =======================================================================
   * Total *    0.00000     15.99625    32.81490    0.18885    49.00000

 Normal termination of Gaussian 16 at Wed Dec  9 18:10:33 2020.
