 Gaussian 16, Revision A.03,

 -----------------------------------------------------------
 # opt freq B3LYP/6-31G(d) empiricaldispersion=gd3bj scf=xqc
 -----------------------------------------------------------

 -------------------------------
 CID_116960093_JID_8424_neutraal
 -------------------------------
 Symbolic Z-matrix:
 Charge =  0 Multiplicity = 1

 SCF Done:  E(RB3LYP) =  -732.521852067     A.U. after   14 cycles
 SCF Done:  E(RB3LYP) =  -732.529581688     A.U. after   12 cycles
 SCF Done:  E(RB3LYP) =  -732.528717871     A.U. after   12 cycles
 SCF Done:  E(RB3LYP) =  -732.528923765     A.U. after   12 cycles
 SCF Done:  E(RB3LYP) =  -732.530302865     A.U. after    9 cycles
 SCF Done:  E(RB3LYP) =  -732.530789120     A.U. after   11 cycles
 SCF Done:  E(RB3LYP) =  -732.530896984     A.U. after   11 cycles
 SCF Done:  E(RB3LYP) =  -732.530948429     A.U. after   10 cycles
 SCF Done:  E(RB3LYP) =  -732.530966601     A.U. after   10 cycles
 SCF Done:  E(RB3LYP) =  -732.530972483     A.U. after    9 cycles
 SCF Done:  E(RB3LYP) =  -732.530973599     A.U. after    8 cycles
 SCF Done:  E(RB3LYP) =  -732.530974735     A.U. after    7 cycles
 SCF Done:  E(RB3LYP) =  -732.530974955     A.U. after    7 cycles
 SCF Done:  E(RB3LYP) =  -732.530974998     A.U. after    6 cycles
 Optimization completed.
    -- Stationary point found.
 Normal termination of Gaussian 16 at Mon Dec 14 16:48:48 2020.

 --------------------------------------------------------------------
 #N Geom=AllCheck Guess=TCheck SCRF=Check GenChk RB3LYP/6-31G(d) Freq
 --------------------------------------------------------------------

 Structure from the checkpoint file:  "JID_8424.chk"
 -------------------------------
 CID_116960093_JID_8424_neutraal
 -------------------------------
 Charge =  0 Multiplicity = 1

 SCF Done:  E(RB3LYP) =  -732.530974998     A.U. after    1 cycles

  Exact polarizability: 213.268  20.520 163.513   5.041 -36.115 159.668
 Approx polarizability: 312.998  44.015 260.027   9.554 -92.239 269.068

                      1                      2                      3
                      A                      A                      A
 Frequencies --     35.7259                47.6634                59.1367
 Red. masses --      3.7348                 3.2781                 3.9570
 Frc consts  --      0.0028                 0.0044                 0.0082
 IR Inten    --      0.0220                 0.1566                 0.2577

                      4                      5                      6
                      A                      A                      A
 Frequencies --     75.3913               104.7765               130.2254
 Red. masses --      2.7110                 2.4598                 2.6982
 Frc consts  --      0.0091                 0.0159                 0.0270
 IR Inten    --      1.3266                 0.8289                 1.8445

                      7                      8                      9
                      A                      A                      A
 Frequencies --    142.4453               156.9430               171.5565
 Red. masses --      3.1819                 3.0004                 2.7109
 Frc consts  --      0.0380                 0.0435                 0.0470
 IR Inten    --      1.3428                 0.4451                 0.7387

                     10                     11                     12
                      A                      A                      A
 Frequencies --    193.1285               209.7186               249.5658
 Red. masses --      2.7636                 1.6244                 2.2393
 Frc consts  --      0.0607                 0.0421                 0.0822
 IR Inten    --      0.6635                 6.0088                 0.9441

                     13                     14                     15
                      A                      A                      A
 Frequencies --    255.9253               262.7868               289.8506
 Red. masses --      1.1157                 1.5526                 3.4104
 Frc consts  --      0.0431                 0.0632                 0.1688
 IR Inten    --     27.1392                10.1147                 4.6835

                     16                     17                     18
                      A                      A                      A
 Frequencies --    316.3708               329.2441               345.7617
 Red. masses --      2.0779                 2.4315                 3.4691
 Frc consts  --      0.1225                 0.1553                 0.2444
 IR Inten    --      0.9731                14.9799                 0.2553

                     19                     20                     21
                      A                      A                      A
 Frequencies --    389.0044               425.3200               462.5450
 Red. masses --      3.6696                 3.6324                 3.4064
 Frc consts  --      0.3272                 0.3871                 0.4294
 IR Inten    --      2.0646                 5.2266                 6.4987

                     22                     23                     24
                      A                      A                      A
 Frequencies --    485.9859               508.4809               520.7971
 Red. masses --      3.4558                 5.5071                 3.6075
 Frc consts  --      0.4809                 0.8389                 0.5765
 IR Inten    --      0.9302                 0.9971                 4.0723

                     25                     26                     27
                      A                      A                      A
 Frequencies --    563.2052               571.5716               595.7366
 Red. masses --      3.8261                 3.4413                 3.3685
 Frc consts  --      0.7151                 0.6624                 0.7044
 IR Inten    --      5.2511                 3.9305                 1.8040

                     28                     29                     30
                      A                      A                      A
 Frequencies --    649.5212               672.4874               716.2285
 Red. masses --      3.9095                 3.4212                 2.7047
 Frc consts  --      0.9718                 0.9116                 0.8175
 IR Inten    --      1.7692                 0.9020                17.2358

                     31                     32                     33
                      A                      A                      A
 Frequencies --    751.2486               785.5479               796.7495
 Red. masses --      1.2949                 1.5971                 1.7021
 Frc consts  --      0.4306                 0.5807                 0.6366
 IR Inten    --      3.0718                 7.6541                57.8810

                     34                     35                     36
                      A                      A                      A
 Frequencies --    801.9302               812.9342               818.2700
 Red. masses --      2.2811                 3.9843                 1.6655
 Frc consts  --      0.8643                 1.5514                 0.6570
 IR Inten    --     66.9544                14.9724                26.6986

                     37                     38                     39
                      A                      A                      A
 Frequencies --    849.6968               878.4105               884.7199
 Red. masses --      1.7662                 1.4847                 1.6006
 Frc consts  --      0.7513                 0.6750                 0.7381
 IR Inten    --     34.5772                26.1541                38.1089

                     40                     41                     42
                      A                      A                      A
 Frequencies --    895.8723               919.8040               944.8383
 Red. masses --      2.9724                 1.4195                 2.1615
 Frc consts  --      1.4056                 0.7076                 1.1369
 IR Inten    --     15.9385                 1.8988                 9.3663

                     43                     44                     45
                      A                      A                      A
 Frequencies --    956.3147               965.2547               975.1204
 Red. masses --      1.4128                 1.7543                 1.2908
 Frc consts  --      0.7613                 0.9630                 0.7231
 IR Inten    --      2.3683                 9.7962                 2.4618

                     46                     47                     48
                      A                      A                      A
 Frequencies --    989.0195              1000.6389              1039.4568
 Red. masses --      1.2689                 1.8488                 2.2134
 Frc consts  --      0.7313                 1.0906                 1.4091
 IR Inten    --      0.1815                 8.4477                 3.1363

                     49                     50                     51
                      A                      A                      A
 Frequencies --   1054.7798              1071.4134              1075.8660
 Red. masses --      3.3065                 2.0220                 2.5205
 Frc consts  --      2.1674                 1.3675                 1.7189
 IR Inten    --      2.9435                 2.5666                 6.1394

                     52                     53                     54
                      A                      A                      A
 Frequencies --   1090.9048              1093.3789              1120.9150
 Red. masses --      1.9067                 1.6255                 2.2352
 Frc consts  --      1.3370                 1.1449                 1.6547
 IR Inten    --      3.6250                 7.2395                 3.0059

                     55                     56                     57
                      A                      A                      A
 Frequencies --   1143.9155              1159.8838              1173.3489
 Red. masses --      3.6456                 1.9069                 1.4441
 Frc consts  --      2.8106                 1.5115                 1.1714
 IR Inten    --     45.6368                 8.7443                13.2436

                     58                     59                     60
                      A                      A                      A
 Frequencies --   1180.2096              1194.5815              1199.9161
 Red. masses --      1.3582                 1.2223                 1.3641
 Frc consts  --      1.1147                 1.0277                 1.1572
 IR Inten    --      0.9718                 2.4889                 2.8379

                     61                     62                     63
                      A                      A                      A
 Frequencies --   1215.9551              1233.4998              1246.7908
 Red. masses --      1.9387                 1.4904                 2.1145
 Frc consts  --      1.6889                 1.3360                 1.9367
 IR Inten    --      2.3289                 4.1699                 0.9681

                     64                     65                     66
                      A                      A                      A
 Frequencies --   1262.7287              1285.8591              1305.2671
 Red. masses --      1.5939                 1.4596                 1.4655
 Frc consts  --      1.4974                 1.4219                 1.4711
 IR Inten    --      3.0957                 1.0304                 6.2005

                     67                     68                     69
                      A                      A                      A
 Frequencies --   1309.4279              1352.6268              1358.6437
 Red. masses --      1.5282                 1.4352                 1.2159
 Frc consts  --      1.5438                 1.5471                 1.3223
 IR Inten    --     11.7508                 1.7460                 3.2630

                     70                     71                     72
                      A                      A                      A
 Frequencies --   1373.4014              1396.4386              1406.6803
 Red. masses --      1.5801                 1.4435                 6.3919
 Frc consts  --      1.7561                 1.6585                 7.4520
 IR Inten    --      0.6231                 0.1898                 0.0470

                     73                     74                     75
                      A                      A                      A
 Frequencies --   1415.0695              1429.8092              1435.2080
 Red. masses --      1.4138                 2.2902                 1.3898
 Frc consts  --      1.6680                 2.7585                 1.6867
 IR Inten    --      9.9818                 4.3151                 3.6584

                     76                     77                     78
                      A                      A                      A
 Frequencies --   1441.9051              1442.6812              1480.0633
 Red. masses --      1.6040                 1.2463                 1.1875
 Frc consts  --      1.9649                 1.5283                 1.5327
 IR Inten    --      4.5067                 3.0475                 2.2643

                     79                     80                     81
                      A                      A                      A
 Frequencies --   1496.8281              1509.0840              1516.7000
 Red. masses --      1.9694                 2.1650                 1.1119
 Frc consts  --      2.5997                 2.9050                 1.5071
 IR Inten    --      0.4988                 2.5777                12.6589

                     82                     83                     84
                      A                      A                      A
 Frequencies --   1519.3278              1524.2344              1530.1942
 Red. masses --      1.0616                 1.1695                 1.0511
 Frc consts  --      1.4438                 1.6009                 1.4500
 IR Inten    --      0.9072                 4.4693                 1.3071

                     85                     86                     87
                      A                      A                      A
 Frequencies --   1536.0091              1546.0706              1549.7473
 Red. masses --      1.0776                 1.0699                 1.0559
 Frc consts  --      1.4980                 1.5068                 1.4941
 IR Inten    --      7.0607                10.6254                10.6264

                     88                     89                     90
                      A                      A                      A
 Frequencies --   1569.4125              1635.1054              1659.1098
 Red. masses --      3.2075                 7.0081                 4.9419
 Frc consts  --      4.6547                11.0394                 8.0148
 IR Inten    --     10.3792                 0.5036                 5.4520

                     91                     92                     93
                      A                      A                      A
 Frequencies --   1683.1802              1697.1583              2979.4854
 Red. masses --      5.8827                 1.0882                 1.0734
 Frc consts  --      9.8195                 1.8467                 5.6143
 IR Inten    --      0.0358                30.2202                85.7488

                     94                     95                     96
                      A                      A                      A
 Frequencies --   2986.7151              3028.9229              3042.8446
 Red. masses --      1.0542                 1.0807                 1.0384
 Frc consts  --      5.5408                 5.8413                 5.6645
 IR Inten    --     57.8875                23.0837                31.4289

                     97                     98                     99
                      A                      A                      A
 Frequencies --   3049.5141              3068.5078              3076.3456
 Red. masses --      1.0654                 1.0843                 1.0793
 Frc consts  --      5.8375                 6.0153                 6.0182
 IR Inten    --     27.6921                 8.9178                48.9303

                    100                    101                    102
                      A                      A                      A
 Frequencies --   3088.3624              3109.8950              3112.8071
 Red. masses --      1.0971                 1.1023                 1.0935
 Frc consts  --      6.1655                 6.2809                 6.2429
 IR Inten    --      0.5966                46.3136                50.7968

                    103                    104                    105
                      A                      A                      A
 Frequencies --   3114.3648              3117.9667              3177.1575
 Red. masses --      1.0962                 1.1032                 1.0860
 Frc consts  --      6.2646                 6.3188                 6.4591
 IR Inten    --     16.1222                30.1244                 2.3345

                    106                    107                    108
                      A                      A                      A
 Frequencies --   3179.2171              3185.5158              3190.7001
 Red. masses --      1.0863                 1.0899                 1.0895
 Frc consts  --      6.4691                 6.5161                 6.5353
 IR Inten    --      0.4339                17.2402                17.2008

                    109                    110                    111
                      A                      A                      A
 Frequencies --   3204.1567              3207.3672              3238.5876
 Red. masses --      1.0966                 1.0957                 1.0905
 Frc consts  --      6.6334                 6.6409                 6.7389
 IR Inten    --     38.5559                32.7558                13.3260

                    112                    113                    114
                      A                      A                      A
 Frequencies --   3474.8154              3511.2034              3558.9356
 Red. masses --      1.0499                 1.0729                 1.0924
 Frc consts  --      7.4689                 7.7933                 8.1519
 IR Inten    --      1.9050                 0.5029                 0.1968

 - Thermochemistry -
 -------------------
 Temperature   298.150 Kelvin.  Pressure   1.00000 Atm.
 Atom     1 has atomic number  6 and mass  12.00000

 Molecular mass:   242.17830 amu.
 Principal axes and moments of inertia in atomic units:
                           1         2         3
     Eigenvalues --  2971.414556162.365436602.22550
           X            0.99994  -0.01039  -0.00414
           Y            0.01062   0.99803   0.06191
           Z            0.00349  -0.06195   0.99807
 This molecule is an asymmetric top.
 Rotational symmetry number  1.
 Warning -- assumption of classical behavior for rotation
           may cause significant error
 Rotational temperatures (Kelvin)      0.02915     0.01406     0.01312
 Rotational constants (GHZ):           0.60737     0.29287     0.27335
 Zero-point vibrational energy     930872.0 (Joules/Mol)
                                  222.48375 (Kcal/Mol)
 Warning -- explicit consideration of  27 degrees of freedom as
           vibrations may cause significant error
 Vibrational temperatures:     51.40    68.58    85.08   108.47   150.75
          (Kelvin)            187.37   204.95   225.81   246.83   277.87
                              301.74   359.07   368.22   378.09   417.03
                              455.19   473.71   497.47   559.69   611.94
                              665.50   699.23   731.59   749.31   810.33
                              822.36   857.13   934.52   967.56  1030.49
                             1080.88  1130.23  1146.34  1153.80  1169.63
                             1177.31  1222.52  1263.84  1272.91  1288.96
                             1323.39  1359.41  1375.92  1388.79  1402.98
                             1422.98  1439.70  1495.55  1517.59  1541.52
                             1547.93  1569.57  1573.13  1612.75  1645.84
                             1668.81  1688.19  1698.06  1718.74  1726.41
                             1749.49  1774.73  1793.85  1816.78  1850.06
                             1877.99  1883.97  1946.13  1954.79  1976.02
                             2009.16  2023.90  2035.97  2057.18  2064.94
                             2074.58  2075.70  2129.48  2153.60  2171.24
                             2182.19  2185.97  2193.03  2201.61  2209.97
                             2224.45  2229.74  2258.03  2352.55  2387.09
                             2421.72  2441.83  4286.81  4297.22  4357.94
                             4377.97  4387.57  4414.90  4426.18  4443.46
                             4474.45  4478.64  4480.88  4486.06  4571.22
                             4574.18  4583.25  4590.71  4610.07  4614.69
                             4659.61  4999.48  5051.84  5120.51

 Zero-point correction=                           0.354550 (Hartree/Particle)
 Thermal correction to Energy=                    0.372066
 Thermal correction to Enthalpy=                  0.373010
 Thermal correction to Gibbs Free Energy=         0.309324
 Sum of electronic and zero-point Energies=           -732.176425
 Sum of electronic and thermal Energies=              -732.158909
 Sum of electronic and thermal Enthalpies=            -732.157965
 Sum of electronic and thermal Free Energies=         -732.221651

                     E (Thermal)             CV                S
                      KCal/Mol        Cal/Mol-Kelvin    Cal/Mol-Kelvin
 Total                  233.475             68.285            134.040
 Electronic               0.000              0.000              0.000
 Translational            0.889              2.981             42.355
 Rotational               0.889              2.981             33.158
 Vibrational            231.698             62.324             58.528
 Vibration     1          0.594              1.982              5.483
 Vibration     2          0.595              1.978              4.912
 Vibration     3          0.597              1.974              4.486
 Vibration     4          0.599              1.965              4.007
 Vibration     5          0.605              1.945              3.363
 Vibration     6          0.612              1.923              2.943
 Vibration     7          0.616              1.911              2.771
 Vibration     8          0.621              1.895              2.586
 Vibration     9          0.626              1.877              2.418
 Vibration    10          0.635              1.849              2.198
 Vibration    11          0.642              1.826              2.046
 Vibration    12          0.662              1.763              1.734
 Vibration    13          0.666              1.753              1.689
 Vibration    14          0.670              1.741              1.643
 Vibration    15          0.686              1.693              1.475
 Vibration    16          0.703              1.642              1.329
 Vibration    17          0.712              1.617              1.264
 Vibration    18          0.724              1.584              1.185
 Vibration    19          0.757              1.494              1.004
 Vibration    20          0.787              1.415              0.874
 Vibration    21          0.820              1.333              0.759
 Vibration    22          0.842              1.281              0.694
 Vibration    23          0.864              1.231              0.637
 Vibration    24          0.876              1.204              0.608
 Vibration    25          0.919              1.111              0.517
 Vibration    26          0.928              1.093              0.501
 Vibration    27          0.954              1.041              0.457

 Optimization completed.
    -- Stationary point found.
 Normal termination of Gaussian 16 at Mon Dec 14 17:12:25 2020.

 ----------------------------------------------------------------------
 # B3LYP/6-311++G(d,p) empiricaldispersion=gd3bj scf=xqc pop=npa geom=c
 heck
 ----------------------------------------------------------------------

 ---------------------------------------
 CID_116960093_JID_8424_Energie_neutraal
 ---------------------------------------
 Structure from the checkpoint file:  "JID_8424.chk"
 Charge =  0 Multiplicity = 1

 SCF Done:  E(RB3LYP) =  -732.733235409     A.U. after   15 cycles
 Normal termination of Gaussian 16 at Mon Dec 14 17:23:12 2020.

 ----------------------------------------------------------------------
 # B3LYP/6-311++G(d,p) empiricaldispersion=gd3bj scf=xqc pop=npa geom=c
 heck
 ----------------------------------------------------------------------

 -------------------------------------
 CID_116960093_JID_8424_Energie_kation
 -------------------------------------
 Structure from the checkpoint file:  "JID_8424.chk"
 Charge =  1 Multiplicity = 2

 SCF Done:  E(UB3LYP) =  -732.457724549     A.U. after   23 cycles
 Normal termination of Gaussian 16 at Mon Dec 14 17:46:43 2020.
 Gaussian 16:  ES64L-G16RevA.03 25-Dec-2016

 ----------------------------------------------------------------------
 # B3LYP/6-311++G(d,p) empiricaldispersion=gd3bj scf=xqc pop=npa geom=c
 heck
 ----------------------------------------------------------------------

 ------------------------------------
 CID_116960093_JID_8424_Energie_anion
 ------------------------------------
 Structure from the checkpoint file:  "JID_8424.chk"
 Charge = -1 Multiplicity = 2

                         Standard orientation:
 ---------------------------------------------------------------------
 Center     Atomic      Atomic             Coordinates (Angstroms)
 Number     Number       Type             X           Y           Z
 ---------------------------------------------------------------------
      1          6           0        2.462586   -2.640005   -1.286552
      2          6           0        1.698279   -1.322909   -1.121372
      3          6           0        1.909875   -0.643020    0.241537
      4          6           0        3.394961   -0.380552    0.552681
      5          7           0        4.028208    0.423330   -0.502236
      6          6           0        1.136878    0.697523    0.350891
      7          6           0       -0.235997    0.738653   -0.318738
      8          6           0       -0.418708    1.623855   -1.363208
      9          6           0       -1.663814    1.781242   -2.013980
     10          6           0       -2.747869    1.046000   -1.604958
     11          6           0       -2.623645    0.119214   -0.536817
     12          6           0       -3.738162   -0.649271   -0.109754
     13          6           0       -3.626909   -1.557748    0.916511
     14          6           0       -2.380670   -1.738303    1.556882
     15          6           0       -1.281291   -1.005877    1.167052
     16          6           0       -1.355262   -0.048724    0.116337
     17          7           0        1.131003    1.156286    1.750066
     18          6           0        0.766985    2.561543    1.903122
     19          1           0        3.549332   -2.496404   -1.265694
     20          1           0        2.213416   -3.118781   -2.239940
     21          1           0        2.211351   -3.344972   -0.484452
     22          1           0        1.981015   -0.622590   -1.918412
     23          1           0        0.629012   -1.514080   -1.258978
     24          1           0        1.553989   -1.332501    1.019716
     25          1           0        3.435949    0.193817    1.482173
     26          1           0        3.902201   -1.342128    0.736620
     27          1           0        4.926228    0.771538   -0.174180
     28          1           0        4.229808   -0.160363   -1.312127
     29          1           0        1.759367    1.418655   -0.190561
     30          1           0        0.426613    2.222389   -1.692997
     31          1           0       -1.755966    2.490981   -2.831334
     32          1           0       -3.714629    1.159090   -2.088909
     33          1           0       -4.688930   -0.504855   -0.617096
     34          1           0       -4.488713   -2.138740    1.232057
     35          1           0       -2.287274   -2.463172    2.360688
     36          1           0       -0.336668   -1.184840    1.664222
     37          1           0        0.481698    0.590523    2.291290
     38          1           0       -0.217149    2.829019    1.482714
     39          1           0        0.769978    2.818988    2.967449
     40          1           0        1.521471    3.181386    1.405143
 ---------------------------------------------------------------------

 SCF Done:  E(UB3LYP) =  -732.730580729     A.U. after   30 cycles

 The electronic state is 2-A.
 Alpha  occ. eigenvalues --  -14.18544 -14.18202 -10.07710 -10.07408 -10.07372
 Alpha  occ. eigenvalues --  -10.05481 -10.05478 -10.05192 -10.05026 -10.04915
 Alpha  occ. eigenvalues --  -10.04158 -10.04019 -10.03828 -10.03473 -10.03412
 Alpha  occ. eigenvalues --  -10.03314 -10.03290 -10.03092  -0.79483  -0.77272
 Alpha  occ. eigenvalues --   -0.73899  -0.69110  -0.68113  -0.64491  -0.61694
 Alpha  occ. eigenvalues --   -0.60845  -0.59232  -0.56165  -0.53062  -0.50858
 Alpha  occ. eigenvalues --   -0.49023  -0.47959  -0.45566  -0.44186  -0.39362
 Alpha  occ. eigenvalues --   -0.38309  -0.38162  -0.36891  -0.36414  -0.34710
 Alpha  occ. eigenvalues --   -0.33358  -0.32768  -0.32448  -0.31342  -0.30429
 Alpha  occ. eigenvalues --   -0.29912  -0.28896  -0.28252  -0.27630  -0.27141
 Alpha  occ. eigenvalues --   -0.26523  -0.26329  -0.25679  -0.24369  -0.23950
 Alpha  occ. eigenvalues --   -0.21829  -0.21493  -0.20951  -0.20536  -0.19900
 Alpha  occ. eigenvalues --   -0.19395  -0.15693  -0.13592  -0.12030  -0.11247
 Alpha  occ. eigenvalues --   -0.09223   0.04563
 Alpha virt. eigenvalues --    0.06270   0.08084   0.08180   0.08618   0.08999
 Alpha virt. eigenvalues --    0.09576   0.10128   0.10830   0.10883   0.10998
 Alpha virt. eigenvalues --    0.11587   0.12049   0.12701   0.12914   0.13004

  Beta  occ. eigenvalues --  -14.18513 -14.18187 -10.07710 -10.07399 -10.07385
  Beta  occ. eigenvalues --  -10.05470 -10.05459 -10.05245 -10.05088 -10.04913
  Beta  occ. eigenvalues --  -10.04133 -10.03940 -10.03785 -10.03392 -10.03218
  Beta  occ. eigenvalues --  -10.03083 -10.03065 -10.02865  -0.79435  -0.77219
  Beta  occ. eigenvalues --   -0.73677  -0.68855  -0.68001  -0.64173  -0.61567
  Beta  occ. eigenvalues --   -0.60674  -0.58910  -0.56111  -0.52989  -0.50713
  Beta  occ. eigenvalues --   -0.48638  -0.47873  -0.45340  -0.44151  -0.39322
  Beta  occ. eigenvalues --   -0.38111  -0.37966  -0.36831  -0.36295  -0.34647
  Beta  occ. eigenvalues --   -0.33299  -0.32732  -0.32384  -0.31270  -0.30319
  Beta  occ. eigenvalues --   -0.29884  -0.28806  -0.28148  -0.27545  -0.27038
  Beta  occ. eigenvalues --   -0.26433  -0.26263  -0.25228  -0.24249  -0.23887
  Beta  occ. eigenvalues --   -0.21794  -0.21401  -0.20849  -0.20381  -0.19355
  Beta  occ. eigenvalues --   -0.19103  -0.14713  -0.13516  -0.11541  -0.11095
  Beta  occ. eigenvalues --   -0.07868
  Beta virt. eigenvalues --    0.06853   0.08125   0.08237   0.08599   0.08993
  Beta virt. eigenvalues --    0.09171   0.09642   0.10067   0.10899   0.11008
  Beta virt. eigenvalues --    0.11128   0.11574   0.12038   0.12782   0.12939

 Mulliken charges and spin densities:
               1          2
     1  C    0.208132  -0.806680
     2  C   -1.121341   0.534657
     3  C    0.635773   0.210801
     4  C    0.476440  -1.273909
     5  N   -0.484920   0.155386
     6  C   -1.103604   0.181092
     7  C    0.376277   0.163595
     8  C   -0.312970   0.093194
     9  C   -0.459973   0.046455
    10  C   -0.252531   0.119466
    11  C    0.481118  -0.029594
    12  C   -0.312280   0.188322
    13  C   -0.334231   0.016707
    14  C   -0.259549   0.095481
    15  C   -0.490822   0.147361
    16  C    0.406605  -0.013316
    17  N   -0.016023   0.005575
    18  C   -0.376542   0.007667
    19  H   -0.189785   0.324541
    20  H    0.002996   0.128861
    21  H    0.048243   0.092901
    22  H    0.127873   0.039326
    23  H    0.144094  -0.010000
    24  H    0.260394  -0.131575
    25  H    0.125250   0.088558
    26  H   -0.049805   0.193864
    27  H   -0.035877   0.265780
    28  H    0.039764   0.177912
    29  H    0.311380  -0.057070
    30  H    0.071412   0.028866
    31  H    0.123024   0.001281
    32  H    0.088923  -0.012958
    33  H    0.100165  -0.011494
    34  H    0.107529  -0.000899
    35  H    0.123112   0.003790
    36  H   -0.074160   0.031416
    37  H    0.243499  -0.007533
    38  H    0.133928  -0.000710
    39  H    0.111435   0.005629
    40  H    0.127045   0.007254
 Sum of Mulliken charges =  -1.00000   1.00000

 Dipole moment (field-independent basis, Debye):
    X=             -1.5337    Y=              0.6392    Z=              1.4742  Tot=              2.2213
 Quadrupole moment (field-independent basis, Debye-Ang):
   XX=           -173.7730   YY=           -135.3747   ZZ=           -131.7397
   XY=              2.1875   XZ=              4.3827   YZ=             -1.2750

 Summary of Natural Population Analysis:

                                       Natural Population
                Natural  -----------------------------------------------
    Atom  No    Charge         Core      Valence    Rydberg      Total
 -----------------------------------------------------------------------
      C    1   -0.28528      0.99967     2.28063    0.00498     3.28528
      C    2   -0.19764      0.99962     2.18966    0.00836     3.19764
      C    3   -0.10679      0.99957     2.09491    0.01231     3.10679
      C    4   -0.09434      0.99960     2.08183    0.01292     3.09434
      N    5   -0.42750      0.99977     2.91695    0.01078     3.92750
      C    6   -0.02104      0.99954     2.00588    0.01563     3.02104
      C    7    0.01719      0.99946     1.97188    0.01146     2.98281
      C    8   -0.09547      0.99950     2.08546    0.01050     3.09547
      C    9   -0.09948      0.99957     2.09106    0.00884     3.09948
      C   10   -0.05850      0.99953     2.05004    0.00892     3.05850
      C   11   -0.05111      0.99953     2.03956    0.01201     3.05111
      C   12   -0.01863      0.99956     2.01434    0.00473     3.01863
      C   13   -0.12400      0.99961     2.10907    0.01533     3.12400
      C   14   -0.09235      0.99957     2.08364    0.00914     3.09235
      C   15   -0.07041      0.99954     2.06285    0.00803     3.07041
      C   16   -0.03666      0.99946     2.02609    0.01111     3.03666
      N   17   -0.34087      0.99974     2.83018    0.01094     3.84087
      C   18   -0.17729      0.99967     2.17114    0.00649     3.17729
      H   19    0.09330      0.00000     0.40559    0.00111     0.40670
      H   20    0.09668      0.00000     0.40267    0.00066     0.40332
      H   21    0.09481      0.00000     0.40433    0.00086     0.40519
      H   22    0.09779      0.00000     0.40111    0.00110     0.40221
      H   23    0.10750      0.00000     0.39069    0.00181     0.39250
      H   24    0.09401      0.00000     0.40435    0.00165     0.40599
      H   25    0.10151      0.00000     0.39690    0.00159     0.39849
      H   26    0.07868      0.00000     0.41993    0.00139     0.42132
      H   27    0.17453      0.00000     0.32382    0.00164     0.32547
      H   28    0.17265      0.00000     0.32563    0.00172     0.32735
      H   29    0.10554      0.00000     0.39232    0.00214     0.39446
      H   30    0.09290      0.00000     0.40603    0.00106     0.40710
      H   31    0.09107      0.00000     0.40802    0.00091     0.40893
      H   32    0.08710      0.00000     0.41101    0.00189     0.41290
      H   33    0.08817      0.00000     0.41112    0.00071     0.41183
      H   34    0.08973      0.00000     0.40883    0.00145     0.41027
      H   35    0.09016      0.00000     0.40885    0.00099     0.40984
      H   36    0.08833      0.00000     0.40964    0.00203     0.41167
      H   37    0.17390      0.00000     0.32418    0.00192     0.32610
      H   38    0.08603      0.00000     0.41257    0.00140     0.41397
      H   39    0.08721      0.00000     0.41203    0.00076     0.41279
      H   40    0.08867      0.00000     0.41046    0.00086     0.41133
 =======================================================================
   * Total *    0.00009     17.99250    47.79528    0.21213    65.99991

 Normal termination of Gaussian 16 at Mon Dec 14 18:15:37 2020.
