 Gaussian 16, Revision A.03,

 -----------------------------------------------------------
 # opt freq B3LYP/6-31G(d) empiricaldispersion=gd3bj scf=xqc
 -----------------------------------------------------------

 ------------------------------
 CID_54021213_JID_1945_neutraal
 ------------------------------
 Symbolic Z-matrix:
 Charge =  0 Multiplicity = 1

 SCF Done:  E(RB3LYP) =  -827.263631117     A.U. after   14 cycles
 SCF Done:  E(RB3LYP) =  -827.266337102     A.U. after   12 cycles
 SCF Done:  E(RB3LYP) =  -827.266694312     A.U. after   12 cycles
 SCF Done:  E(RB3LYP) =  -827.266715372     A.U. after   10 cycles
 SCF Done:  E(RB3LYP) =  -827.266735210     A.U. after   10 cycles
 SCF Done:  E(RB3LYP) =  -827.266752199     A.U. after   10 cycles
 SCF Done:  E(RB3LYP) =  -827.266755176     A.U. after    9 cycles
 SCF Done:  E(RB3LYP) =  -827.266756968     A.U. after    9 cycles
 SCF Done:  E(RB3LYP) =  -827.266758576     A.U. after    9 cycles
 SCF Done:  E(RB3LYP) =  -827.266761403     A.U. after   10 cycles
 SCF Done:  E(RB3LYP) =  -827.266767518     A.U. after   10 cycles
 SCF Done:  E(RB3LYP) =  -827.266769379     A.U. after    9 cycles
 SCF Done:  E(RB3LYP) =  -827.266770480     A.U. after    9 cycles
 SCF Done:  E(RB3LYP) =  -827.266770552     A.U. after    7 cycles
 SCF Done:  E(RB3LYP) =  -827.266770569     A.U. after    6 cycles
 Optimization completed.
    -- Stationary point found.
 Normal termination of Gaussian 16 at Tue Dec  8 21:49:53 2020.

 --------------------------------------------------------------------
 #N Geom=AllCheck Guess=TCheck SCRF=Check GenChk RB3LYP/6-31G(d) Freq
 --------------------------------------------------------------------

 Structure from the checkpoint file:  "JID_1945.chk"
 ------------------------------
 CID_54021213_JID_1945_neutraal
 ------------------------------
 Charge =  0 Multiplicity = 1

 SCF Done:  E(RB3LYP) =  -827.266770569     A.U. after    1 cycles

  Exact polarizability: 122.682  -7.696 119.936   4.899   2.917 101.312
 Approx polarizability: 154.717 -22.544 194.069   7.323   5.201 141.913

                      1                      2                      3
                      A                      A                      A
 Frequencies --     22.1290                31.4537                50.0664
 Red. masses --      5.1735                 3.3968                 2.7551
 Frc consts  --      0.0015                 0.0020                 0.0041
 IR Inten    --      0.6692                 1.2587                 0.2229

                      4                      5                      6
                      A                      A                      A
 Frequencies --     64.8310                81.0351               139.6957
 Red. masses --      1.1662                 1.8623                 3.2479
 Frc consts  --      0.0029                 0.0072                 0.0373
 IR Inten    --      0.2585                 0.0319                 1.2300

                      7                      8                      9
                      A                      A                      A
 Frequencies --    145.2419               209.6997               216.3958
 Red. masses --      3.8506                 2.8037                 1.0439
 Frc consts  --      0.0479                 0.0726                 0.0288
 IR Inten    --      0.3874                 2.4588                 0.0587

                     10                     11                     12
                      A                      A                      A
 Frequencies --    226.8963               258.5679               281.3740
 Red. masses --      2.3443                 1.7890                 1.9195
 Frc consts  --      0.0711                 0.0705                 0.0895
 IR Inten    --      2.6828                 1.2137                 1.1022

                     13                     14                     15
                      A                      A                      A
 Frequencies --    318.7840               352.2686               396.9743
 Red. masses --      1.8766                 2.5866                 2.3689
 Frc consts  --      0.1124                 0.1891                 0.2199
 IR Inten    --      0.1673                 1.2055                 0.2574

                     16                     17                     18
                      A                      A                      A
 Frequencies --    434.1553               446.1441               530.6154
 Red. masses --      2.2672                 2.3351                 3.4202
 Frc consts  --      0.2518                 0.2739                 0.5674
 IR Inten    --      1.5797                 0.3685                 0.3657

                     19                     20                     21
                      A                      A                      A
 Frequencies --    533.8277               567.6210               723.6017
 Red. masses --      3.8954                 3.3220                 2.1581
 Frc consts  --      0.6540                 0.6306                 0.6658
 IR Inten    --      0.5876                 2.8079                 1.7026

                     22                     23                     24
                      A                      A                      A
 Frequencies --    751.5672               786.6252               836.7018
 Red. masses --      2.9214                 1.2403                 1.6353
 Frc consts  --      0.9723                 0.4522                 0.6745
 IR Inten    --      3.9401                 0.7753                 3.3998

                     25                     26                     27
                      A                      A                      A
 Frequencies --    877.4371               917.8007               948.8264
 Red. masses --      2.3731                 2.0006                 1.8006
 Frc consts  --      1.0765                 0.9929                 0.9551
 IR Inten    --      0.8187                 9.6030                 4.3804

                     28                     29                     30
                      A                      A                      A
 Frequencies --    984.5785              1004.7331              1013.3250
 Red. masses --      1.3143                 1.6152                 1.5994
 Frc consts  --      0.7506                 0.9607                 0.9676
 IR Inten    --      3.1930                 0.9799                 3.8464

                     31                     32                     33
                      A                      A                      A
 Frequencies --   1043.3133              1046.4410              1064.5101
 Red. masses --      1.5435                 1.5329                 2.2394
 Frc consts  --      0.9899                 0.9890                 1.4951
 IR Inten    --      2.8225                 1.3520                 6.9284

                     34                     35                     36
                      A                      A                      A
 Frequencies --   1071.7526              1106.2376              1162.0008
 Red. masses --      2.1577                 2.3293                 2.1254
 Frc consts  --      1.4603                 1.6795                 1.6908
 IR Inten    --     43.3065                41.6501                 0.7349

                     37                     38                     39
                      A                      A                      A
 Frequencies --   1175.3415              1192.2793              1242.0238
 Red. masses --      2.0607                 1.7739                 2.0171
 Frc consts  --      1.6773                 1.4857                 1.8333
 IR Inten    --      0.5583                 4.5886                37.4868

                     40                     41                     42
                      A                      A                      A
 Frequencies --   1258.1854              1261.3283              1309.8765
 Red. masses --      1.4701                 1.8766                 1.3922
 Frc consts  --      1.3711                 1.7590                 1.4074
 IR Inten    --     56.4718                33.1940               110.0233

                     43                     44                     45
                      A                      A                      A
 Frequencies --   1321.5172              1324.8050              1360.9318
 Red. masses --      2.6363                 1.2326                 1.1832
 Frc consts  --      2.7126                 1.2746                 1.2912
 IR Inten    --    418.1061                 4.5874                 7.8115

                     46                     47                     48
                      A                      A                      A
 Frequencies --   1370.3680              1404.0249              1413.9146
 Red. masses --      1.2600                 1.4770                 1.4361
 Frc consts  --      1.3941                 1.7154                 1.6915
 IR Inten    --      2.9183                 5.9924                 4.9603

                     49                     50                     51
                      A                      A                      A
 Frequencies --   1415.4439              1422.8077              1436.1497
 Red. masses --      1.5001                 1.3011                 1.4477
 Frc consts  --      1.7707                 1.5519                 1.7592
 IR Inten    --      1.2052                12.5068                 7.3135

                     52                     53                     54
                      A                      A                      A
 Frequencies --   1439.7203              1444.6118              1504.0602
 Red. masses --      1.2899                 1.2327                 1.0457
 Frc consts  --      1.5754                 1.5157                 1.3937
 IR Inten    --      5.4076                 2.3611                 8.6493

                     55                     56                     57
                      A                      A                      A
 Frequencies --   1506.8256              1511.4024              1513.1254
 Red. masses --      1.0833                 1.0781                 1.0685
 Frc consts  --      1.4492                 1.4510                 1.4414
 IR Inten    --      5.2276                 4.1773                 0.2028

                     58                     59                     60
                      A                      A                      A
 Frequencies --   1521.5960              1527.3326              1531.6147
 Red. masses --      1.0884                 1.0468                 1.0587
 Frc consts  --      1.4847                 1.4387                 1.4632
 IR Inten    --      6.3553                 3.7388                 3.0658

                     61                     62                     63
                      A                      A                      A
 Frequencies --   1534.2889              1536.3937              1544.7162
 Red. masses --      1.0864                 1.0642                 1.0493
 Frc consts  --      1.5068                 1.4800                 1.4753
 IR Inten    --     10.9122                 8.0447                 1.3939

                     64                     65                     66
                      A                      A                      A
 Frequencies --   3008.5438              3024.3920              3034.3238
 Red. masses --      1.0805                 1.0656                 1.0599
 Frc consts  --      5.7621                 5.7427                 5.7497
 IR Inten    --      7.4426                22.4639                17.2504

                     67                     68                     69
                      A                      A                      A
 Frequencies --   3043.0573              3047.9614              3055.1317
 Red. masses --      1.0424                 1.0384                 1.0636
 Frc consts  --      5.6872                 5.6835                 5.8490
 IR Inten    --     44.3898                25.8019                29.9734

                     70                     71                     72
                      A                      A                      A
 Frequencies --   3056.0042              3066.6763              3076.1103
 Red. masses --      1.0403                 1.0934                 1.0946
 Frc consts  --      5.7242                 6.0583                 6.1024
 IR Inten    --      9.6662                31.1056                16.2992

                     73                     74                     75
                      A                      A                      A
 Frequencies --   3081.2387              3095.5182              3104.3674
 Red. masses --      1.0666                 1.0987                 1.1002
 Frc consts  --      5.9661                 6.2028                 6.2469
 IR Inten    --      7.8894                29.2937                50.3313

                     76                     77                     78
                      A                      A                      A
 Frequencies --   3110.6938              3111.8636              3119.5299
 Red. masses --      1.1013                 1.1001                 1.1020
 Frc consts  --      6.2789                 6.2766                 6.3184
 IR Inten    --     50.9292                 7.1361                44.4060

                     79                     80                     81
                      A                      A                      A
 Frequencies --   3128.9675              3129.5486              3193.7454
 Red. masses --      1.0997                 1.1072                 1.0999
 Frc consts  --      6.3437                 6.3890                 6.6098
 IR Inten    --     38.9662                26.1413                 3.8758

 - Thermochemistry -
 -------------------
 Temperature   298.150 Kelvin.  Pressure   1.00000 Atm.
 Atom     1 has atomic number  6 and mass  12.00000

 Molecular mass:   174.10784 amu.
 Principal axes and moments of inertia in atomic units:
                           1         2         3
     Eigenvalues --  1357.336294143.026994384.18499
           X            0.99965   0.02630  -0.00003
           Y           -0.02627   0.99852   0.04764
           Z            0.00128  -0.04762   0.99886
 This molecule is an asymmetric top.
 Rotational symmetry number  1.
 Warning -- assumption of classical behavior for rotation
           may cause significant error
 Rotational temperatures (Kelvin)      0.06381     0.02091     0.01976
 Rotational constants (GHZ):           1.32962     0.43561     0.41165
 Zero-point vibrational energy     682826.0 (Joules/Mol)
                                  163.19932 (Kcal/Mol)
 Warning -- explicit consideration of  20 degrees of freedom as
           vibrations may cause significant error
 Vibrational temperatures:     31.84    45.25    72.03    93.28   116.59
          (Kelvin)            200.99   208.97   301.71   311.35   326.45
                              372.02   404.83   458.66   506.84   571.16
                              624.65   641.90   763.44   768.06   816.68
                             1041.10  1081.34  1131.78  1203.83  1262.44
                             1320.51  1365.15  1416.59  1445.59  1457.95
                             1501.10  1505.60  1531.59  1542.01  1591.63
                             1671.86  1691.05  1715.42  1787.00  1810.25
                             1814.77  1884.62  1901.37  1906.10  1958.08
                             1971.65  2020.08  2034.31  2036.51  2047.10
                             2066.30  2071.44  2078.47  2164.01  2167.99
                             2174.57  2177.05  2189.24  2197.49  2203.65
                             2207.50  2210.53  2222.50  4328.62  4351.43
                             4365.72  4378.28  4385.34  4395.65  4396.91
                             4412.26  4425.84  4433.22  4453.76  4466.49
                             4475.59  4477.28  4488.31  4501.89  4502.72
                             4595.09

 Zero-point correction=                           0.260075 (Hartree/Particle)
 Thermal correction to Energy=                    0.274104
 Thermal correction to Enthalpy=                  0.275049
 Thermal correction to Gibbs Free Energy=         0.217040
 Sum of electronic and zero-point Energies=           -827.006696
 Sum of electronic and thermal Energies=              -826.992666
 Sum of electronic and thermal Enthalpies=            -826.991722
 Sum of electronic and thermal Free Energies=         -827.049731

                     E (Thermal)             CV                S
                      KCal/Mol        Cal/Mol-Kelvin    Cal/Mol-Kelvin
 Total                  172.003             49.589            122.090
 Electronic               0.000              0.000              0.000
 Translational            0.889              2.981             41.371
 Rotational               0.889              2.981             31.578
 Vibrational            170.226             43.627             49.141
 Vibration     1          0.593              1.985              6.433
 Vibration     2          0.594              1.983              5.736
 Vibration     3          0.595              1.978              4.815
 Vibration     4          0.597              1.971              4.304
 Vibration     5          0.600              1.962              3.866
 Vibration     6          0.615              1.914              2.808
 Vibration     7          0.617              1.908              2.734
 Vibration     8          0.642              1.826              2.046
 Vibration     9          0.645              1.816              1.989
 Vibration    10          0.651              1.800              1.903
 Vibration    11          0.667              1.748              1.671
 Vibration    12          0.681              1.708              1.525
 Vibration    13          0.705              1.638              1.316
 Vibration    14          0.729              1.571              1.156
 Vibration    15          0.763              1.477              0.974
 Vibration    16          0.795              1.396              0.845
 Vibration    17          0.805              1.369              0.808
 Vibration    18          0.886              1.182              0.586
 Vibration    19          0.889              1.175              0.579
 Vibration    20          0.924              1.101              0.509

 Optimization completed.
    -- Stationary point found.
 Normal termination of Gaussian 16 at Tue Dec  8 21:56:02 2020.

 ----------------------------------------------------------------------
 # B3LYP/6-311++G(d,p) empiricaldispersion=gd3bj scf=xqc pop=npa geom=c
 heck
 ----------------------------------------------------------------------

 --------------------------------------
 CID_54021213_JID_1945_Energie_neutraal
 --------------------------------------
 Structure from the checkpoint file:  "JID_1945.chk"
 Charge =  0 Multiplicity = 1

 SCF Done:  E(RB3LYP) =  -827.415578422     A.U. after   14 cycles
 Normal termination of Gaussian 16 at Tue Dec  8 21:58:27 2020.

 ----------------------------------------------------------------------
 # B3LYP/6-311++G(d,p) empiricaldispersion=gd3bj scf=xqc pop=npa geom=c
 heck
 ----------------------------------------------------------------------

 ------------------------------------
 CID_54021213_JID_1945_Energie_kation
 ------------------------------------
 Structure from the checkpoint file:  "JID_1945.chk"
 Charge =  1 Multiplicity = 2

 SCF Done:  E(UB3LYP) =  -827.101187918     A.U. after   24 cycles
 Normal termination of Gaussian 16 at Tue Dec  8 22:03:38 2020.
 Gaussian 16:  ES64L-G16RevA.03 25-Dec-2016

 ----------------------------------------------------------------------
 # B3LYP/6-311++G(d,p) empiricaldispersion=gd3bj scf=xqc pop=npa geom=c
 heck
 ----------------------------------------------------------------------

 -----------------------------------
 CID_54021213_JID_1945_Energie_anion
 -----------------------------------
 Structure from the checkpoint file:  "JID_1945.chk"
 Charge = -1 Multiplicity = 2

                         Standard orientation:
 ---------------------------------------------------------------------
 Center     Atomic      Atomic             Coordinates (Angstroms)
 Number     Number       Type             X           Y           Z
 ---------------------------------------------------------------------
      1          6           0        3.311058    1.884562   -0.458810
      2          6           0        2.795057    0.725844    0.399695
      3          6           0        1.946552   -0.305061   -0.365721
      4          6           0        2.736193   -0.967783   -1.502633
      5          6           0        1.380270   -1.394220    0.564772
      6          6           0        0.497528   -0.906590    1.724893
      7          6           0       -0.647789   -0.003555    1.298917
      8          8           0       -1.433360   -0.729082    0.326179
      9          6           0       -2.436908   -0.119076   -0.304724
     10         16           0       -2.908456    1.442932   -0.067810
     11          6           0       -3.080542   -1.077227   -1.271405
     12          1           0        4.016639    1.545292   -1.224047
     13          1           0        3.827025    2.628927    0.157539
     14          1           0        2.483431    2.391811   -0.969958
     15          1           0        3.643025    0.206572    0.870510
     16          1           0        2.201538    1.144186    1.222302
     17          1           0        1.099693    0.230008   -0.821687
     18          1           0        3.628408   -1.474739   -1.112390
     19          1           0        2.124909   -1.718892   -2.016070
     20          1           0        3.064899   -0.240890   -2.251559
     21          1           0        0.794816   -2.095078   -0.042102
     22          1           0        2.215462   -1.972553    0.984114
     23          1           0        0.090919   -1.776852    2.254404
     24          1           0        1.091165   -0.348536    2.459086
     25          1           0       -1.299032    0.266176    2.136289
     26          1           0       -0.302082    0.925273    0.837478
     27          1           0       -3.461597   -1.949244   -0.726659
     28          1           0       -3.895346   -0.594820   -1.808868
     29          1           0       -2.330200   -1.442268   -1.982743
 ---------------------------------------------------------------------

 SCF Done:  E(UB3LYP) =  -827.408777173     A.U. after   33 cycles
 SCF Done:  E(UB3LYP) =  -827.408777173     a.u. after    1 cycles

 The electronic state is 2-A.
 Alpha  occ. eigenvalues --  -88.65469 -19.03192 -10.10814 -10.10659 -10.06713
 Alpha  occ. eigenvalues --  -10.06661 -10.06201 -10.05985 -10.05621 -10.05343
 Alpha  occ. eigenvalues --  -10.04753  -7.74259  -5.70563  -5.70228  -5.69796
 Alpha  occ. eigenvalues --   -0.95200  -0.71932  -0.68088  -0.64279  -0.62192
 Alpha  occ. eigenvalues --   -0.57592  -0.56424  -0.53381  -0.49914  -0.45266
 Alpha  occ. eigenvalues --   -0.42968  -0.38030  -0.35954  -0.34951  -0.34339
 Alpha  occ. eigenvalues --   -0.32831  -0.32040  -0.31532  -0.29642  -0.28920
 Alpha  occ. eigenvalues --   -0.28380  -0.27445  -0.26322  -0.25937  -0.25160
 Alpha  occ. eigenvalues --   -0.23921  -0.22315  -0.21544  -0.21109  -0.20449
 Alpha  occ. eigenvalues --   -0.19236  -0.12121  -0.07922   0.04908
 Alpha virt. eigenvalues --    0.06488   0.07780   0.07886   0.08619   0.09764
 Alpha virt. eigenvalues --    0.10216   0.10749   0.11375   0.11615   0.12461
 Alpha virt. eigenvalues --    0.12853   0.13224   0.13655   0.13977   0.14551

  Beta  occ. eigenvalues --  -88.65435 -19.03038 -10.10665 -10.10140 -10.06711
  Beta  occ. eigenvalues --  -10.06657 -10.06189 -10.05977 -10.05596 -10.05318
  Beta  occ. eigenvalues --  -10.04801  -7.74229  -5.70567  -5.70094  -5.69779
  Beta  occ. eigenvalues --   -0.94787  -0.71888  -0.67840  -0.63945  -0.62071
  Beta  occ. eigenvalues --   -0.57483  -0.56249  -0.53324  -0.49833  -0.45155
  Beta  occ. eigenvalues --   -0.42792  -0.37833  -0.35794  -0.34741  -0.34276
  Beta  occ. eigenvalues --   -0.32518  -0.31616  -0.31084  -0.29452  -0.28790
  Beta  occ. eigenvalues --   -0.28334  -0.27363  -0.26205  -0.25852  -0.25087
  Beta  occ. eigenvalues --   -0.23823  -0.21998  -0.21368  -0.21072  -0.20003
  Beta  occ. eigenvalues --   -0.18944  -0.10807  -0.07830
  Beta virt. eigenvalues --    0.07021   0.08013   0.08217   0.08819   0.09935
  Beta virt. eigenvalues --    0.10162   0.10721   0.11117   0.11752   0.11846
  Beta virt. eigenvalues --    0.12572   0.13033   0.13509   0.13736   0.14057

 Mulliken charges and spin densities:
               1          2
     1  C    0.627685  -1.308295
     2  C   -0.705680   0.480177
     3  C   -0.290133   0.766523
     4  C    0.746933  -1.379532
     5  C   -0.176951  -0.170898
     6  C   -0.335730   0.053166
     7  C   -0.413042  -0.095867
     8  O    0.101478   0.039761
     9  C    0.173470   0.360043
    10  S   -0.702164   0.141070
    11  C   -0.357857  -0.128523
    12  H   -0.208669   0.347327
    13  H   -0.226320   0.360670
    14  H   -0.080705   0.224336
    15  H   -0.146813   0.280727
    16  H    0.177854  -0.072597
    17  H    0.254860  -0.113780
    18  H   -0.169448   0.307818
    19  H   -0.062506   0.195205
    20  H   -0.097180   0.230681
    21  H    0.140634   0.025871
    22  H    0.065464   0.057682
    23  H    0.147726   0.024663
    24  H   -0.006866   0.148045
    25  H    0.132467   0.013741
    26  H    0.150420   0.027086
    27  H    0.136352   0.008170
    28  H    0.136391   0.009638
    29  H   -0.011669   0.167096
 Sum of Mulliken charges =  -1.00000   1.00000

 Dipole moment (field-independent basis, Debye):
    X=             -0.0093    Y=             -3.5257    Z=              2.6516  Tot=              4.4116
 Quadrupole moment (field-independent basis, Debye-Ang):
   XX=           -150.8231   YY=           -108.8487   ZZ=           -100.3693
   XY=              5.8102   XZ=              3.6627   YZ=             -1.1345

 Summary of Natural Population Analysis:

                                       Natural Population
                Natural  -----------------------------------------------
    Atom  No    Charge         Core      Valence    Rydberg      Total
 -----------------------------------------------------------------------
      C    1   -0.28597      0.99967     2.28117    0.00513     3.28597
      C    2   -0.19032      0.99962     2.18154    0.00916     3.19032
      C    3   -0.11725      0.99960     2.10793    0.00972     3.11725
      C    4   -0.28400      0.99965     2.27848    0.00587     3.28400
      C    5   -0.18789      0.99961     2.17864    0.00964     3.18789
      C    6   -0.19813      0.99962     2.19067    0.00785     3.19813
      C    7   -0.01682      0.99956     2.00629    0.01097     3.01682
      O    8   -0.27199      0.99983     3.25890    0.01326     4.27199
      C    9    0.23330      0.99969     1.74792    0.01909     2.76670
      S   10   -0.12645      4.99950     3.11226    0.01469     8.12645
      C   11   -0.32183      0.99961     2.31592    0.00630     3.32183
      H   12    0.09695      0.00000     0.40194    0.00111     0.40305
      H   13    0.09760      0.00000     0.40149    0.00091     0.40240
      H   14    0.09756      0.00000     0.40147    0.00096     0.40244
      H   15    0.09183      0.00000     0.40704    0.00113     0.40817
      H   16    0.09477      0.00000     0.40392    0.00131     0.40523
      H   17    0.09767      0.00000     0.40036    0.00197     0.40233
      H   18    0.09462      0.00000     0.40429    0.00109     0.40538
      H   19    0.09947      0.00000     0.39954    0.00099     0.40053
      H   20    0.09983      0.00000     0.39928    0.00088     0.40017
      H   21    0.10278      0.00000     0.39594    0.00127     0.39722
      H   22    0.09323      0.00000     0.40577    0.00100     0.40677
      H   23    0.09688      0.00000     0.40204    0.00108     0.40312
      H   24    0.09687      0.00000     0.40199    0.00114     0.40313
      H   25    0.09279      0.00000     0.40621    0.00100     0.40721
      H   26    0.09603      0.00000     0.40262    0.00136     0.40397
      H   27    0.10456      0.00000     0.39445    0.00099     0.39544
      H   28    0.10549      0.00000     0.39390    0.00061     0.39451
      H   29    0.10840      0.00000     0.39007    0.00153     0.39160
 =======================================================================
   * Total *   -0.00000     14.99596    32.87204    0.13200    48.00000

 Normal termination of Gaussian 16 at Tue Dec  8 22:10:33 2020.
