 Gaussian 16, Revision A.03,

 -----------------------------------------------------------
 # opt freq B3LYP/6-31G(d) empiricaldispersion=gd3bj scf=xqc
 -----------------------------------------------------------

 ------------------------------
 CID_89437660_JID_1509_neutraal
 ------------------------------
 Symbolic Z-matrix:
 Charge =  0 Multiplicity = 1

 SCF Done:  E(RB3LYP) =  -485.622415375     A.U. after   13 cycles
 SCF Done:  E(RB3LYP) =  -485.625853238     A.U. after   10 cycles
 SCF Done:  E(RB3LYP) =  -485.626671829     A.U. after   10 cycles
 SCF Done:  E(RB3LYP) =  -485.627136400     A.U. after   10 cycles
 SCF Done:  E(RB3LYP) =  -485.627677973     A.U. after   10 cycles
 SCF Done:  E(RB3LYP) =  -485.628279645     A.U. after   10 cycles
 SCF Done:  E(RB3LYP) =  -485.628464634     A.U. after   10 cycles
 SCF Done:  E(RB3LYP) =  -485.628589340     A.U. after   10 cycles
 SCF Done:  E(RB3LYP) =  -485.628664762     A.U. after   10 cycles
 SCF Done:  E(RB3LYP) =  -485.628676580     A.U. after    8 cycles
 SCF Done:  E(RB3LYP) =  -485.628963666     A.U. after    8 cycles
 SCF Done:  E(RB3LYP) =  -485.628958519     A.U. after    9 cycles
 SCF Done:  E(RB3LYP) =  -485.628958492     A.U. after    7 cycles
 SCF Done:  E(RB3LYP) =  -485.628960322     A.U. after    9 cycles
 SCF Done:  E(RB3LYP) =  -485.628960707     A.U. after    9 cycles
 SCF Done:  E(RB3LYP) =  -485.628960748     A.U. after    7 cycles
 Optimization completed.
    -- Stationary point found.
 Normal termination of Gaussian 16 at Tue Dec  8 20:51:05 2020.

 --------------------------------------------------------------------
 #N Geom=AllCheck Guess=TCheck SCRF=Check GenChk RB3LYP/6-31G(d) Freq
 --------------------------------------------------------------------

 Structure from the checkpoint file:  "JID_1509.chk"
 ------------------------------
 CID_89437660_JID_1509_neutraal
 ------------------------------
 Charge =  0 Multiplicity = 1

 SCF Done:  E(RB3LYP) =  -485.628960748     A.U. after    1 cycles

  Exact polarizability: 101.568  -1.376 115.666  -2.156  -0.387 100.521
 Approx polarizability: 141.855  -0.682 150.757  -1.661  -0.448 143.711

                      1                      2                      3
                      A                      A                      A
 Frequencies --     31.0385                63.1723                70.9525
 Red. masses --      1.7052                 1.6602                 3.8844
 Frc consts  --      0.0010                 0.0039                 0.0115
 IR Inten    --     17.9452                52.7960                 1.8206

                      4                      5                      6
                      A                      A                      A
 Frequencies --    108.3720               130.0915               147.6248
 Red. masses --      7.2128                 2.4801                 2.5682
 Frc consts  --      0.0499                 0.0247                 0.0330
 IR Inten    --      7.1967                 0.3204                 1.1999

                      7                      8                      9
                      A                      A                      A
 Frequencies --    172.5062               214.1508               236.0488
 Red. masses --      1.0427                 1.0785                 1.0243
 Frc consts  --      0.0183                 0.0291                 0.0336
 IR Inten    --     14.0550               451.4539                 7.7575

                     10                     11                     12
                      A                      A                      A
 Frequencies --    245.7406               263.7204               267.9252
 Red. masses --      1.3287                 1.4066                 1.2894
 Frc consts  --      0.0473                 0.0576                 0.0545
 IR Inten    --      1.2805                 0.4734                 0.5651

                     13                     14                     15
                      A                      A                      A
 Frequencies --    288.6197               294.8069               319.8864
 Red. masses --      1.5959                 2.1134                 1.4231
 Frc consts  --      0.0783                 0.1082                 0.0858
 IR Inten    --      0.2183                 3.0131                 0.1779

                     16                     17                     18
                      A                      A                      A
 Frequencies --    321.7716               361.6689               405.7231
 Red. masses --      2.4263                 2.1062                 2.3700
 Frc consts  --      0.1480                 0.1623                 0.2299
 IR Inten    --      0.0258                 0.1074                 0.6022

                     19                     20                     21
                      A                      A                      A
 Frequencies --    406.8663               462.3216               462.8813
 Red. masses --      1.8475                 2.2668                 2.1551
 Frc consts  --      0.1802                 0.2855                 0.2721
 IR Inten    --      0.9195                 8.7605                 0.0755

                     22                     23                     24
                      A                      A                      A
 Frequencies --    485.4994               501.0472               587.7760
 Red. masses --      3.1274                 2.1578                 2.2735
 Frc consts  --      0.4343                 0.3192                 0.4628
 IR Inten    --      0.3889                 3.3932                 4.3429

                     25                     26                     27
                      A                      A                      A
 Frequencies --    690.1923               740.8977               770.6168
 Red. masses --      2.7173                 1.7800                 2.8652
 Frc consts  --      0.7626                 0.5757                 1.0025
 IR Inten    --     50.2828                27.2088                 0.0615

                     28                     29                     30
                      A                      A                      A
 Frequencies --    877.3685               883.5849               915.4045
 Red. masses --      1.5327                 2.1753                 2.0532
 Frc consts  --      0.6951                 1.0006                 1.0137
 IR Inten    --      0.1521                 1.4180                 1.4306

                     31                     32                     33
                      A                      A                      A
 Frequencies --    930.1696               937.5137               937.7753
 Red. masses --      1.9932                 1.7006                 1.5453
 Frc consts  --      1.0161                 0.8806                 0.8007
 IR Inten    --      0.0582                 1.2681                 0.4899

                     34                     35                     36
                      A                      A                      A
 Frequencies --    977.9198               993.5478              1023.2648
 Red. masses --      1.5943                 1.5068                 1.3345
 Frc consts  --      0.8983                 0.8764                 0.8232
 IR Inten    --      3.9662                 3.9680                 0.2184

                     37                     38                     39
                      A                      A                      A
 Frequencies --   1030.7399              1044.4556              1075.8320
 Red. masses --      1.5223                 1.8617                 1.7166
 Frc consts  --      0.9529                 1.1966                 1.1706
 IR Inten    --      4.3189                 6.8521                 0.4186

                     40                     41                     42
                      A                      A                      A
 Frequencies --   1083.8720              1116.6229              1175.4060
 Red. masses --      1.5977                 1.4296                 1.9253
 Frc consts  --      1.1059                 1.0502                 1.5672
 IR Inten    --      0.9950                 3.5449                44.2861

                     43                     44                     45
                      A                      A                      A
 Frequencies --   1213.6788              1225.2058              1245.3350
 Red. masses --      2.0569                 2.3875                 3.0776
 Frc consts  --      1.7851                 2.1116                 2.8122
 IR Inten    --      0.7136                11.7754                 6.4917

                     46                     47                     48
                      A                      A                      A
 Frequencies --   1270.4656              1293.7019              1314.0000
 Red. masses --      1.7020                 2.0106                 2.5549
 Frc consts  --      1.6186                 1.9826                 2.5991
 IR Inten    --      0.1531                44.5995                 9.8490

                     49                     50                     51
                      A                      A                      A
 Frequencies --   1340.9995              1381.4783              1401.8906
 Red. masses --      1.3681                 1.3637                 1.6528
 Frc consts  --      1.4495                 1.5334                 1.9138
 IR Inten    --      2.5292                 7.4780                 1.7619

                     52                     53                     54
                      A                      A                      A
 Frequencies --   1406.4345              1422.7837              1427.3679
 Red. masses --      1.3726                 1.2484                 1.2594
 Frc consts  --      1.5997                 1.4890                 1.5117
 IR Inten    --      1.1557                 0.8850                11.6478

                     55                     56                     57
                      A                      A                      A
 Frequencies --   1441.7188              1450.5154              1492.4391
 Red. masses --      1.2373                 1.2236                 1.1705
 Frc consts  --      1.5152                 1.5168                 1.5361
 IR Inten    --     14.2265                 6.0155                11.6379

                     58                     59                     60
                      A                      A                      A
 Frequencies --   1504.3702              1509.0301              1514.7136
 Red. masses --      1.1001                 1.0731                 1.0554
 Frc consts  --      1.4668                 1.4397                 1.4266
 IR Inten    --      0.4077                 0.1162                 0.8950

                     61                     62                     63
                      A                      A                      A
 Frequencies --   1516.3889              1518.4889              1524.8794
 Red. masses --      1.0617                 1.0559                 1.0620
 Frc consts  --      1.4384                 1.4345                 1.4550
 IR Inten    --      0.6635                 4.5334                 7.2790

                     64                     65                     66
                      A                      A                      A
 Frequencies --   1531.3431              1535.0776              1545.0903
 Red. masses --      1.0742                 1.0655                 1.0705
 Frc consts  --      1.4842                 1.4793                 1.5057
 IR Inten    --      0.7216                 1.0151                 4.4792

                     67                     68                     69
                      A                      A                      A
 Frequencies --   1550.6931              1561.8673              1703.1378
 Red. masses --      1.1504                 1.0573                 1.0825
 Frc consts  --      1.6299                 1.5196                 1.8500
 IR Inten    --      6.8374                10.5226                75.0738

                     70                     71                     72
                      A                      A                      A
 Frequencies --   3035.7807              3036.3101              3037.6868
 Red. masses --      1.0578                 1.0564                 1.0390
 Frc consts  --      5.7438                 5.7380                 5.6489
 IR Inten    --     14.9704                 8.3818                 0.4854

                     73                     74                     75
                      A                      A                      A
 Frequencies --   3038.6304              3045.3008              3046.0731
 Red. masses --      1.0399                 1.0433                 1.0465
 Frc consts  --      5.6571                 5.7006                 5.7211
 IR Inten    --     27.1375                87.8095                63.1380

                     76                     77                     78
                      A                      A                      A
 Frequencies --   3052.4348              3074.0059              3076.7400
 Red. masses --      1.0604                 1.1012                 1.1040
 Frc consts  --      5.8215                 6.1309                 6.1572
 IR Inten    --     17.1166                20.3666                23.8087

                     79                     80                     81
                      A                      A                      A
 Frequencies --   3094.5181              3095.8946              3097.8731
 Red. masses --      1.1011                 1.1005                 1.0992
 Frc consts  --      6.2125                 6.2147                 6.2152
 IR Inten    --     13.5992                 8.9876                44.4764

                     82                     83                     84
                      A                      A                      A
 Frequencies --   3104.4084              3105.8360              3132.9639
 Red. masses --      1.0999                 1.0995                 1.1019
 Frc consts  --      6.2457                 6.2489                 6.3727
 IR Inten    --     47.1991                88.0627                20.7850

                     85                     86                     87
                      A                      A                      A
 Frequencies --   3133.4918              3151.1639              3170.5208
 Red. masses --      1.1019                 1.0978                 1.0933
 Frc consts  --      6.3746                 6.4229                 6.4754
 IR Inten    --     43.2494                12.2359                 7.4955

                     88                     89                     90
                      A                      A                      A
 Frequencies --   3482.5488              3730.9293              3849.1018
 Red. masses --      1.0734                 1.0456                 1.0811
 Frc consts  --      7.6705                 8.5749                 9.4372
 IR Inten    --      3.4532                 5.7502                25.4287

 - Thermochemistry -
 -------------------
 Temperature   298.150 Kelvin.  Pressure   1.00000 Atm.
 Atom     1 has atomic number  6 and mass  12.00000

 Molecular mass:   159.16231 amu.
 Principal axes and moments of inertia in atomic units:
                           1         2         3
     Eigenvalues --  1806.337531976.646862710.39477
           X            0.99911  -0.03970  -0.01453
           Y            0.03968   0.99921  -0.00176
           Z            0.01459   0.00118   0.99989
 This molecule is an asymmetric top.
 Rotational symmetry number  1.
 Warning -- assumption of classical behavior for rotation
           may cause significant error
 Rotational temperatures (Kelvin)      0.04795     0.04382     0.03196
 Rotational constants (GHZ):           0.99912     0.91303     0.66586
 Zero-point vibrational energy     774526.4 (Joules/Mol)
                                  185.11626 (Kcal/Mol)
 Warning -- explicit consideration of  24 degrees of freedom as
           vibrations may cause significant error
 Vibrational temperatures:     44.66    90.89   102.08   155.92   187.17
          (Kelvin)            212.40   248.20   308.12   339.62   353.57
                              379.43   385.48   415.26   424.16   460.25
                              462.96   520.36   583.75   585.39   665.18
                              665.98   698.53   720.90   845.68   993.03
                             1065.99  1108.75  1262.34  1271.28  1317.06
                             1338.31  1348.87  1349.25  1407.01  1429.49
                             1472.25  1483.00  1502.74  1547.88  1559.45
                             1606.57  1691.15  1746.21  1762.80  1791.76
                             1827.92  1861.35  1890.55  1929.40  1987.64
                             2017.01  2023.55  2047.07  2053.66  2074.31
                             2086.97  2147.29  2164.45  2171.16  2179.33
                             2181.75  2184.77  2193.96  2203.26  2208.63
                             2223.04  2231.10  2247.18  2450.44  4367.81
                             4368.57  4370.55  4371.91  4381.51  4382.62
                             4391.77  4422.81  4426.74  4452.32  4454.30
                             4457.15  4466.55  4468.61  4507.64  4508.40
                             4533.82  4561.67  5010.61  5367.98  5538.00

 Zero-point correction=                           0.295002 (Hartree/Particle)
 Thermal correction to Energy=                    0.310237
 Thermal correction to Enthalpy=                  0.311182
 Thermal correction to Gibbs Free Energy=         0.253771
 Sum of electronic and zero-point Energies=           -485.333959
 Sum of electronic and thermal Energies=              -485.318723
 Sum of electronic and thermal Enthalpies=            -485.317779
 Sum of electronic and thermal Free Energies=         -485.375190

                     E (Thermal)             CV                S
                      KCal/Mol        Cal/Mol-Kelvin    Cal/Mol-Kelvin
 Total                  194.677             56.543            120.831
 Electronic               0.000              0.000              0.000
 Translational            0.889              2.981             41.103
 Rotational               0.889              2.981             30.649
 Vibrational            192.899             50.581             49.079
 Vibration     1          0.594              1.983              5.762
 Vibration     2          0.597              1.972              4.356
 Vibration     3          0.598              1.968              4.127
 Vibration     4          0.606              1.943              3.298
 Vibration     5          0.612              1.923              2.945
 Vibration     6          0.617              1.905              2.703
 Vibration     7          0.626              1.876              2.408
 Vibration     8          0.644              1.819              2.008
 Vibration     9          0.655              1.786              1.832
 Vibration    10          0.660              1.770              1.761
 Vibration    11          0.670              1.739              1.637
 Vibration    12          0.673              1.732              1.610
 Vibration    13          0.685              1.695              1.482
 Vibration    14          0.689              1.683              1.446
 Vibration    15          0.706              1.636              1.311
 Vibration    16          0.707              1.632              1.301
 Vibration    17          0.736              1.551              1.115
 Vibration    18          0.771              1.458              0.942
 Vibration    19          0.772              1.455              0.938
 Vibration    20          0.820              1.334              0.759
 Vibration    21          0.821              1.332              0.758
 Vibration    22          0.842              1.282              0.695
 Vibration    23          0.856              1.248              0.656
 Vibration    24          0.945              1.058              0.471

                           ! Non-Optimized Parameters !
 Normal termination of Gaussian 16 at Tue Dec  8 20:59:08 2020.

 ----------------------------------------------------------------------
 # B3LYP/6-311++G(d,p) empiricaldispersion=gd3bj scf=xqc pop=npa geom=c
 heck
 ----------------------------------------------------------------------

 --------------------------------------
 CID_89437660_JID_1509_Energie_neutraal
 --------------------------------------
 Structure from the checkpoint file:  "JID_1509.chk"
 Charge =  0 Multiplicity = 1

 SCF Done:  E(RB3LYP) =  -485.789520169     A.U. after   13 cycles
 Normal termination of Gaussian 16 at Tue Dec  8 21:03:05 2020.

 ----------------------------------------------------------------------
 # B3LYP/6-311++G(d,p) empiricaldispersion=gd3bj scf=xqc pop=npa geom=c
 heck
 ----------------------------------------------------------------------

 ------------------------------------
 CID_89437660_JID_1509_Energie_kation
 ------------------------------------
 Structure from the checkpoint file:  "JID_1509.chk"
 Charge =  1 Multiplicity = 2

 SCF Done:  E(UB3LYP) =  -485.497135756     A.U. after   18 cycles
 Normal termination of Gaussian 16 at Tue Dec  8 21:11:11 2020.
 Gaussian 16:  ES64L-G16RevA.03 25-Dec-2016

 ----------------------------------------------------------------------
 # B3LYP/6-311++G(d,p) empiricaldispersion=gd3bj scf=xqc pop=npa geom=c
 heck
 ----------------------------------------------------------------------

 -----------------------------------
 CID_89437660_JID_1509_Energie_anion
 -----------------------------------
 Structure from the checkpoint file:  "JID_1509.chk"
 Charge = -1 Multiplicity = 2

                         Standard orientation:
 ---------------------------------------------------------------------
 Center     Atomic      Atomic             Coordinates (Angstroms)
 Number     Number       Type             X           Y           Z
 ---------------------------------------------------------------------
      1          6           0        1.960239   -2.182694   -0.286696
      2          6           0        0.767374   -1.222559   -0.151038
      3          6           0        0.266705   -1.242301    1.306041
      4          6           0       -0.674362   -0.076421    1.621747
      5          6           0        0.016802    1.253891    1.309902
      6          6           0        0.513840    1.339160   -0.146251
      7          7           0        1.300560    0.124447   -0.429817
      8          6           0        1.494313    2.516170   -0.274870
      9          6           0       -0.663415    1.590462   -1.117179
     10          6           0       -0.340885   -1.697923   -1.119913
     11          8           0       -3.680523   -0.332692   -0.414892
     12          1           0        2.327220   -2.202964   -1.321030
     13          1           0        2.781694   -1.859108    0.359261
     14          1           0        1.673975   -3.205575   -0.016217
     15          1           0       -0.220986   -2.204655    1.505855
     16          1           0        1.137970   -1.177182    1.970728
     17          1           0       -1.598105   -0.168409    1.038785
     18          1           0       -0.965793   -0.106964    2.679272
     19          1           0       -0.651701    2.100274    1.512110
     20          1           0        0.882961    1.360785    1.975806
     21          1           0        1.639878    0.159753   -1.389725
     22          1           0        1.853758    2.611606   -1.307606
     23          1           0        1.011338    3.461806   -0.002807
     24          1           0        2.361198    2.358628    0.373500
     25          1           0       -1.079849    2.593473   -0.958765
     26          1           0       -0.313548    1.540455   -2.155441
     27          1           0       -1.476035    0.870615   -1.007637
     28          1           0       -1.288111   -1.171287   -0.991028
     29          1           0       -0.019534   -1.557346   -2.159124
     30          1           0       -0.534978   -2.768576   -0.977913
     31          1           0       -3.567279   -1.011018    0.267930
     32          1           0       -3.657465    0.499386    0.081447
 ---------------------------------------------------------------------

 SCF Done:  E(UB3LYP) =  -485.780001916     A.U. after   25 cycles

 The electronic state is 2-A.
 Alpha  occ. eigenvalues --  -19.00647 -14.18323 -10.09921 -10.09878 -10.05475
 Alpha  occ. eigenvalues --  -10.05399 -10.05258 -10.05203 -10.04966 -10.04343
 Alpha  occ. eigenvalues --  -10.04307  -0.89385  -0.80847  -0.69999  -0.67637
 Alpha  occ. eigenvalues --   -0.62059  -0.58336  -0.57453  -0.56650  -0.50171
 Alpha  occ. eigenvalues --   -0.46745  -0.41852  -0.41028  -0.38093  -0.35637
 Alpha  occ. eigenvalues --   -0.34858  -0.33139  -0.32629  -0.31021  -0.30436
 Alpha  occ. eigenvalues --   -0.29804  -0.28452  -0.27947  -0.27586  -0.27175
 Alpha  occ. eigenvalues --   -0.26072  -0.25694  -0.24992  -0.23451  -0.21986
 Alpha  occ. eigenvalues --   -0.21359  -0.20366  -0.19707  -0.19073  -0.11437
 Alpha  occ. eigenvalues --    0.04471
 Alpha virt. eigenvalues --    0.07059   0.07610   0.08417   0.09350   0.09720
 Alpha virt. eigenvalues --    0.09991   0.10677   0.10731   0.11994   0.12267
 Alpha virt. eigenvalues --    0.12888   0.13181   0.13339   0.13533   0.14821

  Beta  occ. eigenvalues --  -19.00552 -14.18309 -10.09921 -10.09878 -10.05462
  Beta  occ. eigenvalues --  -10.05386 -10.05242 -10.05185 -10.04930 -10.04321
  Beta  occ. eigenvalues --  -10.04282  -0.89123  -0.80829  -0.69984  -0.67593
  Beta  occ. eigenvalues --   -0.62028  -0.58300  -0.57417  -0.56605  -0.50102
  Beta  occ. eigenvalues --   -0.46710  -0.41797  -0.40888  -0.38054  -0.35620
  Beta  occ. eigenvalues --   -0.34829  -0.33117  -0.32584  -0.30997  -0.30401
  Beta  occ. eigenvalues --   -0.29773  -0.28414  -0.27860  -0.27563  -0.27087
  Beta  occ. eigenvalues --   -0.26049  -0.25669  -0.24968  -0.23419  -0.21966
  Beta  occ. eigenvalues --   -0.21317  -0.20333  -0.19631  -0.19012  -0.11421
  Beta virt. eigenvalues --    0.06706   0.08007   0.08149   0.08780   0.10007
  Beta virt. eigenvalues --    0.10026   0.10393   0.10796   0.10916   0.12483
  Beta virt. eigenvalues --    0.12544   0.13176   0.13369   0.13486   0.13739

 Mulliken charges and spin densities:
               1          2
     1  C    0.204891  -0.611407
     2  C   -1.108773   1.137432
     3  C    0.103761  -0.579516
     4  C    0.575563  -0.635404
     5  C    0.156140  -0.618170
     6  C   -1.176371   1.235078
     7  N    0.066630   0.049395
     8  C    0.185594  -0.597448
     9  C    0.336251  -0.901805
    10  C    0.260372  -0.819404
    11  O   -0.258917  -0.170699
    12  H   -0.095314   0.220894
    13  H    0.014675   0.135721
    14  H    0.095615   0.036061
    15  H   -0.354533   0.530990
    16  H    0.186894  -0.065083
    17  H    0.533702  -0.590414
    18  H   -1.060842   1.282298
    19  H   -0.406260   0.585096
    20  H    0.197821  -0.074793
    21  H    0.278331  -0.064974
    22  H   -0.104775   0.229664
    23  H    0.095321   0.037278
    24  H    0.010904   0.139538
    25  H   -0.299008   0.447262
    26  H   -0.047075   0.173586
    27  H    0.569631  -0.435640
    28  H    0.546319  -0.372648
    29  H   -0.034717   0.159789
    30  H   -0.221274   0.363363
    31  H   -0.128441   0.390245
    32  H   -0.122113   0.383716
 Sum of Mulliken charges =  -1.00000   1.00000

 Dipole moment (field-independent basis, Debye):
    X=              6.7662    Y=              0.2336    Z=             -2.1926  Tot=              7.1164
 Quadrupole moment (field-independent basis, Debye-Ang):
   XX=           -131.7635   YY=           -112.0318   ZZ=           -108.8177
   XY=             -0.9738   XZ=              4.4809   YZ=              0.2949

 Summary of Natural Population Analysis:

                                       Natural Population
                Natural  -----------------------------------------------
    Atom  No    Charge         Core      Valence    Rydberg      Total
 -----------------------------------------------------------------------
      C    1   -0.28059      0.99962     2.27493    0.00604     3.28059
      C    2    0.05820      0.99957     1.92936    0.01287     2.94180
      C    3   -0.18810      0.99958     2.17828    0.01024     3.18810
      C    4   -0.19641      0.99962     2.18593    0.01087     3.19641
      C    5   -0.18817      0.99958     2.17831    0.01028     3.18817
      C    6    0.05798      0.99957     1.92946    0.01299     2.94202
      N    7   -0.35575      0.99969     2.84403    0.01202     3.85575
      C    8   -0.28057      0.99962     2.27489    0.00606     3.28057
      C    9   -0.29842      0.99961     2.29155    0.00726     3.29842
      C   10   -0.29866      0.99961     2.29195    0.00710     3.29866
      O   11   -0.46356      0.99991     3.45842    0.00523     4.46356
      H   12    0.09468      0.00000     0.40447    0.00085     0.40532
      H   13    0.10184      0.00000     0.39715    0.00101     0.39816
      H   14    0.09799      0.00000     0.40121    0.00081     0.40201
      H   15    0.10189      0.00000     0.39686    0.00124     0.39811
      H   16    0.09549      0.00000     0.40317    0.00134     0.40451
      H   17    0.09870      0.00000     0.39750    0.00380     0.40130
      H   18    0.10033      0.00000     0.39816    0.00152     0.39967
      H   19    0.10260      0.00000     0.39602    0.00137     0.39740
      H   20    0.09538      0.00000     0.40325    0.00137     0.40462
      H   21    0.17158      0.00000     0.32622    0.00219     0.32842
      H   22    0.09467      0.00000     0.40448    0.00085     0.40533
      H   23    0.09840      0.00000     0.40077    0.00083     0.40160
      H   24    0.10172      0.00000     0.39728    0.00100     0.39828
      H   25    0.09869      0.00000     0.40018    0.00113     0.40131
      H   26    0.09490      0.00000     0.40418    0.00092     0.40510
      H   27    0.11052      0.00000     0.38791    0.00157     0.38948
      H   28    0.11180      0.00000     0.38671    0.00149     0.38820
      H   29    0.09492      0.00000     0.40421    0.00087     0.40508
      H   30    0.09796      0.00000     0.40101    0.00103     0.40204
      H   31    0.23490      0.00000     0.25862    0.00648     0.26510
      H   32    0.23511      0.00000     0.25837    0.00651     0.26489
 =======================================================================
   * Total *    0.00000     10.99599    33.86485    0.13916    45.00000

 Normal termination of Gaussian 16 at Tue Dec  8 21:20:57 2020.
