 Gaussian 16, Revision A.03,

 -----------------------------------------------------------
 # opt freq B3LYP/6-31G(d) empiricaldispersion=gd3bj scf=xqc
 -----------------------------------------------------------

 ------------------------------
 CID_43524413_JID_7571_neutraal
 ------------------------------
 Symbolic Z-matrix:
 Charge =  0 Multiplicity = 1

 SCF Done:  E(RB3LYP) =  -782.271952789     A.U. after   15 cycles
 SCF Done:  E(RB3LYP) =  -782.275714052     A.U. after   12 cycles
 SCF Done:  E(RB3LYP) =  -782.274511645     A.U. after   12 cycles
 SCF Done:  E(RB3LYP) =  -782.276864247     A.U. after   13 cycles
 SCF Done:  E(RB3LYP) =  -782.277722454     A.U. after   12 cycles
 SCF Done:  E(RB3LYP) =  -782.277811928     A.U. after   12 cycles
 SCF Done:  E(RB3LYP) =  -782.277987984     A.U. after   12 cycles
 SCF Done:  E(RB3LYP) =  -782.278335794     A.U. after   12 cycles
 SCF Done:  E(RB3LYP) =  -782.278442181     A.U. after   11 cycles
 SCF Done:  E(RB3LYP) =  -782.278507588     A.U. after   11 cycles
 SCF Done:  E(RB3LYP) =  -782.279919504     A.U. after   10 cycles
 SCF Done:  E(RB3LYP) =  -782.279926404     A.U. after   10 cycles
 SCF Done:  E(RB3LYP) =  -782.279926489     A.U. after    8 cycles
 SCF Done:  E(RB3LYP) =  -782.279926614     A.U. after    8 cycles
 SCF Done:  E(RB3LYP) =  -782.279926629     A.U. after    6 cycles
 Optimization completed.
    -- Stationary point found.
 Normal termination of Gaussian 16 at Sun Dec 13 16:26:10 2020.

 --------------------------------------------------------------------
 #N Geom=AllCheck Guess=TCheck SCRF=Check GenChk RB3LYP/6-31G(d) Freq
 --------------------------------------------------------------------

 Structure from the checkpoint file:  "JID_7571.chk"
 ------------------------------
 CID_43524413_JID_7571_neutraal
 ------------------------------
 Charge =  0 Multiplicity = 1

 SCF Done:  E(RB3LYP) =  -782.279926629     A.U. after    1 cycles

  Exact polarizability: 168.271  17.522 128.296  -8.530   3.480 131.930
 Approx polarizability: 222.135  34.052 188.031 -24.941   7.931 227.220

                      1                      2                      3
                      A                      A                      A
 Frequencies --     26.1151                37.8469                40.9884
 Red. masses --      4.5610                 4.8659                 4.5528
 Frc consts  --      0.0018                 0.0041                 0.0045
 IR Inten    --      1.5022                 0.1421                 1.5220

                      4                      5                      6
                      A                      A                      A
 Frequencies --     62.8704               110.5179               126.6094
 Red. masses --      7.1712                 3.3048                 2.9079
 Frc consts  --      0.0167                 0.0238                 0.0275
 IR Inten    --      1.0555                 2.4948                 2.6523

                      7                      8                      9
                      A                      A                      A
 Frequencies --    146.1308               183.0773               224.5254
 Red. masses --      4.2629                 5.6822                 3.5140
 Frc consts  --      0.0536                 0.1122                 0.1044
 IR Inten    --      1.1969                 1.5475                 3.5828

                     10                     11                     12
                      A                      A                      A
 Frequencies --    256.5686               266.5784               298.9310
 Red. masses --      1.8841                 2.0119                 2.6154
 Frc consts  --      0.0731                 0.0842                 0.1377
 IR Inten    --      4.7456                 2.7481                 1.0385

                     13                     14                     15
                      A                      A                      A
 Frequencies --    317.4374               340.5086               391.6860
 Red. masses --      3.0305                 4.0076                 5.0101
 Frc consts  --      0.1799                 0.2738                 0.4529
 IR Inten    --      3.0384                 2.2100                 7.7153

                     16                     17                     18
                      A                      A                      A
 Frequencies --    417.1587               423.6755               449.3363
 Red. masses --      3.6070                 3.2289                 2.2903
 Frc consts  --      0.3698                 0.3415                 0.2724
 IR Inten    --      4.0053                 2.2563                 2.3072

                     19                     20                     21
                      A                      A                      A
 Frequencies --    517.4389               556.9687               582.9949
 Red. masses --      3.0253                 1.8438                 2.9411
 Frc consts  --      0.4772                 0.3370                 0.5890
 IR Inten    --     10.8893                19.8921                45.9466

                     22                     23                     24
                      A                      A                      A
 Frequencies --    614.5872               618.0911               642.5792
 Red. masses --      2.7430                 4.1523                 1.3023
 Frc consts  --      0.6104                 0.9346                 0.3168
 IR Inten    --     16.5331                 0.2341                54.8800

                     25                     26                     27
                      A                      A                      A
 Frequencies --    648.8058               668.5275               736.6317
 Red. masses --      5.0244                 2.2476                 4.6457
 Frc consts  --      1.2461                 0.5918                 1.4853
 IR Inten    --      2.1969                45.1358                34.7692

                     28                     29                     30
                      A                      A                      A
 Frequencies --    750.6016               768.6072               792.6405
 Red. masses --      3.2604                 1.8982                 2.4940
 Frc consts  --      1.0823                 0.6607                 0.9232
 IR Inten    --      4.7436                10.2427                19.7970

                     31                     32                     33
                      A                      A                      A
 Frequencies --    806.0149               815.0501               831.4066
 Red. masses --      2.4879                 2.4048                 2.9378
 Frc consts  --      0.9523                 0.9412                 1.1965
 IR Inten    --     38.1621                67.8384                 3.5880

                     34                     35                     36
                      A                      A                      A
 Frequencies --    850.6137               917.8859               920.5947
 Red. masses --      2.1092                 1.3149                 3.4217
 Frc consts  --      0.8991                 0.6527                 1.7086
 IR Inten    --      3.7599                 2.7547                15.7039

                     37                     38                     39
                      A                      A                      A
 Frequencies --    959.7927               978.5906               986.6700
 Red. masses --      1.8656                 1.3978                 2.0071
 Frc consts  --      1.0125                 0.7887                 1.1512
 IR Inten    --     15.3781                 0.1264                 2.6521

                     40                     41                     42
                      A                      A                      A
 Frequencies --   1004.9535              1011.0742              1014.6998
 Red. masses --      2.5677                 1.2971                 6.6211
 Frc consts  --      1.5279                 0.7812                 4.0166
 IR Inten    --     10.6853                 0.5859                 7.2466

                     43                     44                     45
                      A                      A                      A
 Frequencies --   1021.7392              1047.8134              1078.5405
 Red. masses --      1.6711                 2.0119                 2.6090
 Frc consts  --      1.0279                 1.3015                 1.7881
 IR Inten    --      3.0795                 8.2723                 3.6444

                     46                     47                     48
                      A                      A                      A
 Frequencies --   1079.1039              1084.8801              1113.6853
 Red. masses --      2.3159                 2.4058                 2.1546
 Frc consts  --      1.5889                 1.6683                 1.5745
 IR Inten    --      2.6743                41.7376                16.1844

                     49                     50                     51
                      A                      A                      A
 Frequencies --   1122.5045              1126.0667              1184.8853
 Red. masses --      1.6365                 3.2612                 1.1309
 Frc consts  --      1.2149                 2.4364                 0.9355
 IR Inten    --      5.5836                44.5267                 0.8513

                     52                     53                     54
                      A                      A                      A
 Frequencies --   1200.8411              1212.3759              1223.4156
 Red. masses --      2.7434                 1.1819                 1.1719
 Frc consts  --      2.3308                 1.0236                 1.0335
 IR Inten    --     29.2179                21.0691                51.3170

                     55                     56                     57
                      A                      A                      A
 Frequencies --   1249.0089              1266.9689              1310.2021
 Red. masses --      1.5045                 2.7673                 1.2692
 Frc consts  --      1.3828                 2.6172                 1.2837
 IR Inten    --     19.6053                 9.6487                10.9253

                     58                     59                     60
                      A                      A                      A
 Frequencies --   1315.3660              1323.9512              1330.0842
 Red. masses --      1.7199                 3.6267                 1.6501
 Frc consts  --      1.7532                 3.7455                 1.7199
 IR Inten    --      5.7283                 0.7847               108.5447

                     61                     62                     63
                      A                      A                      A
 Frequencies --   1333.4977              1356.1835              1360.8200
 Red. masses --      1.4250                 1.3007                 1.3254
 Frc consts  --      1.4929                 1.4095                 1.4461
 IR Inten    --      1.2793                 8.7091                 5.1581

                     64                     65                     66
                      A                      A                      A
 Frequencies --   1376.4970              1391.6790              1419.0424
 Red. masses --      1.4552                 1.3506                 1.6205
 Frc consts  --      1.6245                 1.5412                 1.9226
 IR Inten    --     12.8056                18.8249                45.7993

                     67                     68                     69
                      A                      A                      A
 Frequencies --   1428.2975              1472.9866              1484.9735
 Red. masses --      1.2602                 1.5857                 1.9488
 Frc consts  --      1.5148                 2.0270                 2.5319
 IR Inten    --     20.9522                12.9086                25.2617

                     70                     71                     72
                      A                      A                      A
 Frequencies --   1499.9333              1502.6923              1511.2599
 Red. masses --      1.5787                 1.1650                 1.2645
 Frc consts  --      2.0926                 1.5500                 1.7015
 IR Inten    --    148.7468                43.7328                27.6207

                     73                     74                     75
                      A                      A                      A
 Frequencies --   1517.4207              1525.7916              1529.2062
 Red. masses --      1.8741                 1.0703                 1.0956
 Frc consts  --      2.5425                 1.4680                 1.5095
 IR Inten    --     13.6905                 7.2199                 1.9710

                     76                     77                     78
                      A                      A                      A
 Frequencies --   1532.3099              1634.5191              1649.6279
 Red. masses --      1.1557                 5.7391                 5.4513
 Frc consts  --      1.5988                 9.0338                 8.7403
 IR Inten    --      7.3984                16.0584                48.1420

                     79                     80                     81
                      A                      A                      A
 Frequencies --   1752.8623              3050.9797              3060.5170
 Red. masses --      7.3003                 1.0396                 1.0705
 Frc consts  --     13.2156                 5.7017                 5.9080
 IR Inten    --    404.0374                24.6306                13.5200

                     82                     83                     84
                      A                      A                      A
 Frequencies --   3071.4675              3087.8095              3094.1492
 Red. masses --      1.0609                 1.0875                 1.0845
 Frc consts  --      5.8968                 6.1094                 6.1172
 IR Inten    --     36.3442                53.0217                 6.2989

                     85                     86                     87
                      A                      A                      A
 Frequencies --   3105.8083              3122.0821              3123.9330
 Red. masses --      1.0859                 1.1060                 1.1001
 Frc consts  --      6.1717                 6.3517                 6.3255
 IR Inten    --     22.2802                40.0017                19.1613

                     88                     89                     90
                      A                      A                      A
 Frequencies --   3142.0336              3157.8710              3172.8311
 Red. masses --      1.0972                 1.1011                 1.0893
 Frc consts  --      6.3819                 6.4691                 6.4608
 IR Inten    --     10.2625                11.0841                24.8451

                     91                     92                     93
                      A                      A                      A
 Frequencies --   3195.9757              3216.7321              3225.4663
 Red. masses --      1.0885                 1.0944                 1.0944
 Frc consts  --      6.5509                 6.6722                 6.7085
 IR Inten    --      9.2816                21.8401                 4.5265

                     94                     95                     96
                      A                      A                      A
 Frequencies --   3491.9059              3582.7297              3586.9233
 Red. masses --      1.0751                 1.0743                 1.0673
 Frc consts  --      7.7235                 8.1244                 8.0908
 IR Inten    --      0.0563               100.6771               150.9755

 - Thermochemistry -
 -------------------
 Temperature   298.150 Kelvin.  Pressure   1.00000 Atm.
 Atom     1 has atomic number  6 and mass  12.00000

 Molecular mass:   235.13208 amu.
 Principal axes and moments of inertia in atomic units:
                           1         2         3
     Eigenvalues --  1966.111206817.911497145.65151
           X            0.99994  -0.00615   0.00873
           Y            0.00590   0.99957   0.02884
           Z           -0.00890  -0.02879   0.99955
 This molecule is an asymmetric top.
 Rotational symmetry number  1.
 Warning -- assumption of classical behavior for rotation
           may cause significant error
 Rotational temperatures (Kelvin)      0.04405     0.01270     0.01212
 Rotational constants (GHZ):           0.91792     0.26471     0.25256
 Zero-point vibrational energy     760685.2 (Joules/Mol)
                                  181.80812 (Kcal/Mol)
 Warning -- explicit consideration of  23 degrees of freedom as
           vibrations may cause significant error
 Vibrational temperatures:     37.57    54.45    58.97    90.46   159.01
          (Kelvin)            182.16   210.25   263.41   323.04   369.14
                              383.55   430.10   456.72   489.92   563.55
                              600.20   609.57   646.49   744.48   801.35
                              838.80   884.25   889.30   924.53   933.49
                              961.86  1059.85  1079.95  1105.85  1140.43
                             1159.68  1172.68  1196.21  1223.84  1320.63
                             1324.53  1380.93  1407.97  1419.60  1445.90
                             1454.71  1459.93  1470.05  1507.57  1551.78
                             1552.59  1560.90  1602.34  1615.03  1620.16
                             1704.79  1727.74  1744.34  1760.22  1797.05
                             1822.89  1885.09  1892.52  1904.87  1913.69
                             1918.61  1951.25  1957.92  1980.47  2002.32
                             2041.69  2055.00  2119.30  2136.55  2158.07
                             2162.04  2174.37  2183.23  2195.27  2200.19
                             2204.65  2351.71  2373.45  2521.98  4389.68
                             4403.40  4419.16  4442.67  4451.79  4468.57
                             4491.98  4494.64  4520.69  4543.47  4565.00
                             4598.30  4628.16  4640.73  5024.07  5154.75
                             5160.78

 Zero-point correction=                           0.289730 (Hartree/Particle)
 Thermal correction to Energy=                    0.305124
 Thermal correction to Enthalpy=                  0.306068
 Thermal correction to Gibbs Free Energy=         0.245480
 Sum of electronic and zero-point Energies=           -781.990197
 Sum of electronic and thermal Energies=              -781.974803
 Sum of electronic and thermal Enthalpies=            -781.973858
 Sum of electronic and thermal Free Energies=         -782.034447

                     E (Thermal)             CV                S
                      KCal/Mol        Cal/Mol-Kelvin    Cal/Mol-Kelvin
 Total                  191.468             59.782            127.519
 Electronic               0.000              0.000              0.000
 Translational            0.889              2.981             42.267
 Rotational               0.889              2.981             32.927
 Vibrational            189.691             53.820             52.326
 Vibration     1          0.593              1.985              6.105
 Vibration     2          0.594              1.982              5.369
 Vibration     3          0.594              1.981              5.211
 Vibration     4          0.597              1.972              4.365
 Vibration     5          0.606              1.941              3.260
 Vibration     6          0.611              1.927              2.997
 Vibration     7          0.617              1.907              2.722
 Vibration     8          0.631              1.863              2.297
 Vibration     9          0.649              1.804              1.922
 Vibration    10          0.666              1.752              1.685
 Vibration    11          0.672              1.734              1.618
 Vibration    12          0.692              1.676              1.423
 Vibration    13          0.704              1.640              1.323
 Vibration    14          0.720              1.595              1.210
 Vibration    15          0.759              1.488              0.994
 Vibration    16          0.780              1.433              0.902
 Vibration    17          0.786              1.419              0.880
 Vibration    18          0.808              1.362              0.798
 Vibration    19          0.872              1.211              0.616
 Vibration    20          0.912              1.124              0.530
 Vibration    21          0.940              1.068              0.480
 Vibration    22          0.974              1.001              0.425
 Vibration    23          0.978              0.994              0.420

 Optimization completed.
    -- Stationary point found.
 Normal termination of Gaussian 16 at Sun Dec 13 16:38:54 2020.

 ----------------------------------------------------------------------
 # B3LYP/6-311++G(d,p) empiricaldispersion=gd3bj scf=xqc pop=npa geom=c
 heck
 ----------------------------------------------------------------------

 --------------------------------------
 CID_43524413_JID_7571_Energie_neutraal
 --------------------------------------
 Structure from the checkpoint file:  "JID_7571.chk"
 Charge =  0 Multiplicity = 1

 SCF Done:  E(RB3LYP) =  -782.510317763     A.U. after   16 cycles
 Normal termination of Gaussian 16 at Sun Dec 13 16:45:33 2020.

 ----------------------------------------------------------------------
 # B3LYP/6-311++G(d,p) empiricaldispersion=gd3bj scf=xqc pop=npa geom=c
 heck
 ----------------------------------------------------------------------

 ------------------------------------
 CID_43524413_JID_7571_Energie_kation
 ------------------------------------
 Structure from the checkpoint file:  "JID_7571.chk"
 Charge =  1 Multiplicity = 2

 SCF Done:  E(UB3LYP) =  -782.202747477     A.U. after   32 cycles
 Normal termination of Gaussian 16 at Sun Dec 13 17:05:27 2020.
 Gaussian 16:  ES64L-G16RevA.03 25-Dec-2016

 ----------------------------------------------------------------------
 # B3LYP/6-311++G(d,p) empiricaldispersion=gd3bj scf=xqc pop=npa geom=c
 heck
 ----------------------------------------------------------------------

 -----------------------------------
 CID_43524413_JID_7571_Energie_anion
 -----------------------------------
 Structure from the checkpoint file:  "JID_7571.chk"
 Charge = -1 Multiplicity = 2

                         Standard orientation:
 ---------------------------------------------------------------------
 Center     Atomic      Atomic             Coordinates (Angstroms)
 Number     Number       Type             X           Y           Z
 ---------------------------------------------------------------------
      1          6           0       -1.680315    2.745359    0.318768
      2          6           0       -1.027033    1.359341    0.274851
      3          6           0       -2.087223    0.283159    0.076347
      4          6           0       -2.298465   -0.354487   -1.149115
      5          6           0       -3.315427   -1.303187   -1.244184
      6          6           0       -4.084345   -1.582281   -0.116491
      7          6           0       -3.795340   -0.892885    1.062020
      8          7           0       -2.822693    0.017697    1.167724
      9          7           0        0.003731    1.349210   -0.760272
     10          6           0        1.094154    0.540602   -0.820765
     11          8           0        1.969310    0.727923   -1.671339
     12          6           0        1.182604   -0.580220    0.224580
     13          6           0        2.272895   -1.607130   -0.117096
     14          6           0        3.584493   -0.947769    0.378876
     15          6           0        3.083493    0.113467    1.417075
     16          7           0        1.607775    0.034663    1.502139
     17          8           0        4.353995   -0.374342   -0.656937
     18          1           0       -2.150475    2.984877   -0.643033
     19          1           0       -0.936111    3.513727    0.551934
     20          1           0       -2.454591    2.756024    1.089169
     21          1           0       -0.542093    1.174522    1.237656
     22          1           0       -1.671782   -0.113866   -2.000619
     23          1           0       -3.501590   -1.816040   -2.183717
     24          1           0       -4.884385   -2.315254   -0.143142
     25          1           0       -4.369422   -1.083715    1.967122
     26          1           0        0.025097    2.115373   -1.423144
     27          1           0        0.194907   -1.032125    0.349508
     28          1           0        2.065156   -2.524923    0.445690
     29          1           0        2.337273   -1.861521   -1.177222
     30          1           0        4.236649   -1.686279    0.854752
     31          1           0        3.382473    1.100890    1.049503
     32          1           0        3.516738   -0.014032    2.413331
     33          1           0        1.350133   -0.605484    2.250846
     34          1           0        3.716940    0.124377   -1.208766
 ---------------------------------------------------------------------

 SCF Done:  E(UB3LYP) =  -782.506717641     A.U. after   33 cycles
 SCF Done:  E(UB3LYP) =  -782.506717641     a.u. after    1 cycles

 The electronic state is 2-A.
 Alpha  occ. eigenvalues --  -19.00174 -18.99723 -14.23836 -14.20232 -14.17733
 Alpha  occ. eigenvalues --  -10.17447 -10.11472 -10.10996 -10.10589 -10.09085
 Alpha  occ. eigenvalues --  -10.08684 -10.08423 -10.07174 -10.06518 -10.06051
 Alpha  occ. eigenvalues --  -10.06000 -10.05951  -0.94724  -0.91008  -0.83764
 Alpha  occ. eigenvalues --   -0.82060  -0.81384  -0.68540  -0.67726  -0.65268
 Alpha  occ. eigenvalues --   -0.63296  -0.62420  -0.54851  -0.54533  -0.51450
 Alpha  occ. eigenvalues --   -0.49579  -0.48955  -0.45860  -0.42634  -0.41246
 Alpha  occ. eigenvalues --   -0.39677  -0.38908  -0.36892  -0.36440  -0.35318
 Alpha  occ. eigenvalues --   -0.34594  -0.33812  -0.33226  -0.32440  -0.31024
 Alpha  occ. eigenvalues --   -0.29796  -0.29263  -0.29060  -0.28135  -0.27586
 Alpha  occ. eigenvalues --   -0.27159  -0.26098  -0.25514  -0.24977  -0.24413
 Alpha  occ. eigenvalues --   -0.21905  -0.18184  -0.17437  -0.16717  -0.15916
 Alpha  occ. eigenvalues --   -0.14524  -0.13861  -0.13293   0.04384
 Alpha virt. eigenvalues --    0.06381   0.07217   0.07473   0.08438   0.08857
 Alpha virt. eigenvalues --    0.09349   0.09402   0.10087   0.10311   0.10404
 Alpha virt. eigenvalues --    0.10804   0.11634   0.12415   0.12686   0.13142

  Beta  occ. eigenvalues --  -19.00174 -18.99696 -14.23828 -14.20190 -14.17450
  Beta  occ. eigenvalues --  -10.17409 -10.11467 -10.10999 -10.10595 -10.09030
  Beta  occ. eigenvalues --  -10.08670 -10.08360 -10.07158 -10.06500 -10.06034
  Beta  occ. eigenvalues --  -10.05977 -10.05724  -0.94668  -0.91003  -0.83644
  Beta  occ. eigenvalues --   -0.81878  -0.81200  -0.68272  -0.67494  -0.65222
  Beta  occ. eigenvalues --   -0.63178  -0.62355  -0.54757  -0.54455  -0.51203
  Beta  occ. eigenvalues --   -0.49444  -0.48785  -0.45812  -0.42562  -0.41149
  Beta  occ. eigenvalues --   -0.39625  -0.38839  -0.36807  -0.36367  -0.35222
  Beta  occ. eigenvalues --   -0.34533  -0.33739  -0.33129  -0.32354  -0.30861
  Beta  occ. eigenvalues --   -0.29761  -0.29141  -0.28865  -0.28063  -0.27491
  Beta  occ. eigenvalues --   -0.26944  -0.25714  -0.25453  -0.24942  -0.24306
  Beta  occ. eigenvalues --   -0.21886  -0.18160  -0.16634  -0.16080  -0.15858
  Beta  occ. eigenvalues --   -0.14047  -0.13563  -0.13200
  Beta virt. eigenvalues --    0.06820   0.07366   0.07556   0.08529   0.08841
  Beta virt. eigenvalues --    0.09161   0.09582   0.09777   0.10038   0.10381
  Beta virt. eigenvalues --    0.10519   0.11181   0.11648   0.12472   0.12807

 Mulliken charges and spin densities:
               1          2
     1  C   -0.169559  -0.615959
     2  C    0.726888  -0.883349
     3  C   -1.097261   0.826239
     4  C    0.288575   0.036241
     5  C   -0.707817   0.248423
     6  C    0.671252  -0.749589
     7  C   -0.405916   0.328841
     8  N   -0.024967   0.183947
     9  N   -0.141188   0.027619
    10  C    0.034372  -0.067081
    11  O   -0.314845   0.014783
    12  C   -0.177423   0.083071
    13  C   -0.202813  -0.461403
    14  C   -0.334368   0.016228
    15  C    0.021172  -0.363530
    16  N    0.049222   0.004199
    17  O   -0.204906  -0.002081
    18  H    0.014564   0.125452
    19  H    0.068062   0.079682
    20  H    0.138123   0.035745
    21  H    0.212291   0.094823
    22  H    0.106434   0.067412
    23  H   -0.079447   0.220807
    24  H   -0.067310   0.203995
    25  H   -0.084749   0.241976
    26  H    0.316620  -0.012375
    27  H    0.389581  -0.111276
    28  H   -0.329926   0.479879
    29  H    0.226350  -0.004911
    30  H    0.023268   0.149405
    31  H    0.244819  -0.061931
    32  H   -0.301619   0.460277
    33  H   -0.127382   0.389798
    34  H    0.239904   0.014642
 Sum of Mulliken charges =  -1.00000   1.00000

 Dipole moment (field-independent basis, Debye):
    X=             -0.7427    Y=              2.5194    Z=             -2.3444  Tot=              3.5207
 Quadrupole moment (field-independent basis, Debye-Ang):
   XX=           -176.9957   YY=           -125.6873   ZZ=           -134.4378
   XY=              0.5691   XZ=              3.7602   YZ=              1.3131

 Summary of Natural Population Analysis:

                                       Natural Population
                Natural  -----------------------------------------------
    Atom  No    Charge         Core      Valence    Rydberg      Total
 -----------------------------------------------------------------------
      C    1   -0.28080      0.99964     2.27685    0.00431     3.28080
      C    2   -0.03538      0.99955     2.02190    0.01394     3.03538
      C    3    0.10798      0.99951     1.87659    0.01592     2.89202
      C    4   -0.13233      0.99949     2.12505    0.00779     3.13233
      C    5   -0.03894      0.99957     2.02923    0.01014     3.03894
      C    6   -0.13210      0.99956     2.12337    0.00917     3.13210
      C    7    0.03802      0.99958     1.94833    0.01407     2.96198
      N    8   -0.21319      0.99967     2.70137    0.01216     3.71319
      N    9   -0.30756      0.99965     2.79834    0.00957     3.80756
      C   10    0.35808      0.99964     1.61881    0.02347     2.64192
      O   11   -0.34634      0.99986     3.34076    0.00572     4.34634
      C   12   -0.05943      0.99955     2.04701    0.01286     3.05943
      C   13   -0.21201      0.99961     2.20260    0.00980     3.21201
      C   14    0.05232      0.99959     1.93162    0.01647     2.94768
      C   15   -0.10492      0.99962     2.09371    0.01159     3.10492
      N   16   -0.33626      0.99975     2.82412    0.01239     3.83626
      O   17   -0.38559      0.99989     3.37937    0.00633     4.38559
      H   18    0.09551      0.00000     0.40344    0.00105     0.40449
      H   19    0.09749      0.00000     0.40159    0.00092     0.40251
      H   20    0.11214      0.00000     0.38691    0.00095     0.38786
      H   21    0.11980      0.00000     0.37738    0.00282     0.38020
      H   22    0.10373      0.00000     0.39508    0.00119     0.39627
      H   23    0.09356      0.00000     0.40562    0.00082     0.40644
      H   24    0.09772      0.00000     0.40138    0.00090     0.40228
      H   25    0.08392      0.00000     0.41496    0.00112     0.41608
      H   26    0.19073      0.00000     0.30676    0.00251     0.30927
      H   27    0.11592      0.00000     0.38164    0.00244     0.38408
      H   28    0.10424      0.00000     0.39438    0.00139     0.39576
      H   29    0.11071      0.00000     0.38833    0.00096     0.38929
      H   30    0.08689      0.00000     0.41200    0.00111     0.41311
      H   31    0.09421      0.00000     0.40464    0.00115     0.40579
      H   32    0.09748      0.00000     0.40128    0.00124     0.40252
      H   33    0.18034      0.00000     0.31533    0.00433     0.31966
      H   34    0.24406      0.00000     0.25313    0.00281     0.25594
 =======================================================================
   * Total *   -0.00000     16.99375    45.78288    0.22337    63.00000

 Normal termination of Gaussian 16 at Sun Dec 13 17:26:13 2020.
