 Gaussian 16, Revision A.03,

 -----------------------------------------------------------
 # opt freq B3LYP/6-31G(d) empiricaldispersion=gd3bj scf=xqc
 -----------------------------------------------------------

 --------------------------
 CID_6199_JID_4337_neutraal
 --------------------------
 Symbolic Z-matrix:
 Charge =  0 Multiplicity = 1

 SCF Done:  E(RB3LYP) =  -648.483148400     A.U. after   15 cycles
 SCF Done:  E(RB3LYP) =  -648.488495558     A.U. after   13 cycles
 SCF Done:  E(RB3LYP) =  -648.489123778     A.U. after   11 cycles
 SCF Done:  E(RB3LYP) =  -648.489215139     A.U. after   10 cycles
 SCF Done:  E(RB3LYP) =  -648.489225769     A.U. after    9 cycles
 SCF Done:  E(RB3LYP) =  -648.489229043     A.U. after    9 cycles
 Optimization completed.
    -- Stationary point found.

 1\1\GINC-NODE112\FOpt\RB3LYP\6-31G(d)\C11H6O3\VSC10255\10-Dec-2020\0\\
 # opt freq B3LYP/6-31G(d) empiricaldispersion=gd3bj scf=xqc\\CID_6199_
 JID_4337_neutraal\\0,1\C,-1.665776005,1.7369106721,0.0167733611\C,-2.8
 69840117,1.1241112241,0.0199038053\C,-2.988179953,-0.3293838309,0.0172
 391731\O,-4.017410266,-0.9614024863,0.0186837197\O,-1.7873493887,-1.04
 06468209,0.0105463778\C,-0.562743264,-0.4381990616,0.0072733436\C,0.54
 83911138,-1.2784239632,0.0008711923\C,1.7819700001,-0.648224746,-0.002
 3112563\C,1.9576975045,0.756107421,0.000517668\C,3.3890321852,0.961103

 Normal termination of Gaussian 16 at Thu Dec 10 09:17:49 2020.

 --------------------------------------------------------------------
 #N Geom=AllCheck Guess=TCheck SCRF=Check GenChk RB3LYP/6-31G(d) Freq
 --------------------------------------------------------------------

 Structure from the checkpoint file:  "JID_4337.chk"
 --------------------------
 CID_6199_JID_4337_neutraal
 --------------------------
 Charge =  0 Multiplicity = 1

 SCF Done:  E(RB3LYP) =  -648.489229043     A.U. after    1 cycles

  Exact polarizability: 217.154  -0.303 115.751   0.004  -0.002  41.128
 Approx polarizability: 357.981   4.641 217.492   0.014   0.000  65.573

                      1                      2                      3
                      A                      A                      A
 Frequencies --     79.2314               122.9423               186.4609
 Red. masses --      8.1015                 5.1308                 7.7100
 Frc consts  --      0.0300                 0.0457                 0.1579
 IR Inten    --      0.3434                 2.9171                 0.9306

                      4                      5                      6
                      A                      A                      A
 Frequencies --    238.8571               274.9606               349.4064
 Red. masses --      7.4042                 5.2513                 5.4912
 Frc consts  --      0.2489                 0.2339                 0.3950
 IR Inten    --      0.1657                 0.5661                 3.9036

                      7                      8                      9
                      A                      A                      A
 Frequencies --    373.8649               398.6426               411.6995
 Red. masses --      6.7088                 8.4810                 3.6167
 Frc consts  --      0.5525                 0.7941                 0.3612
 IR Inten    --      4.8635                 6.1990                 0.7753

                     10                     11                     12
                      A                      A                      A
 Frequencies --    453.7393               500.8329               553.0933
 Red. masses --      3.0664                 6.4023                 6.3444
 Frc consts  --      0.3720                 0.9462                 1.1435
 IR Inten    --      1.6181                 2.6703                12.9127

                     13                     14                     15
                      A                      A                      A
 Frequencies --    595.2275               615.4637               665.5587
 Red. masses --      4.1142                 8.4270                 3.3549
 Frc consts  --      0.8588                 1.8807                 0.8756
 IR Inten    --      3.5881                 4.3081                 0.0746

                     16                     17                     18
                      A                      A                      A
 Frequencies --    729.2308               744.3116               745.7401
 Red. masses --      3.0086                 6.4579                 4.7522
 Frc consts  --      0.9426                 2.1079                 1.5571
 IR Inten    --      5.5389                14.8687                12.6223

                     19                     20                     21
                      A                      A                      A
 Frequencies --    767.5195               773.3292               816.9946
 Red. masses --      6.5317                 1.6657                 5.4525
 Frc consts  --      2.2670                 0.5869                 2.1443
 IR Inten    --      0.3389                28.2514                 0.3227

                     22                     23                     24
                      A                      A                      A
 Frequencies --    837.7602               855.8853               858.7391
 Red. masses --      1.6961                 7.1731                 1.3065
 Frc consts  --      0.7014                 3.0959                 0.5676
 IR Inten    --     19.1164                10.3854                 2.1131

                     25                     26                     27
                      A                      A                      A
 Frequencies --    865.1952               891.5010               904.3545
 Red. masses --      1.4093                 1.4446                 5.5457
 Frc consts  --      0.6216                 0.6764                 2.6723
 IR Inten    --     18.9891                39.5383                10.2292

                     28                     29                     30
                      A                      A                      A
 Frequencies --    933.4902              1006.0243              1064.8268
 Red. masses --      3.0299                 1.2862                 2.4031
 Frc consts  --      1.5556                 0.7669                 1.6054
 IR Inten    --     31.6200                 0.7091                20.7476

                     31                     32                     33
                      A                      A                      A
 Frequencies --   1107.2376              1134.5630              1168.2683
 Red. masses --      2.5575                 2.1795                 2.0157
 Frc consts  --      1.8474                 1.6530                 1.6209
 IR Inten    --     27.5871                81.8929               122.6217

                     34                     35                     36
                      A                      A                      A
 Frequencies --   1196.0506              1206.5676              1257.0382
 Red. masses --      1.8499                 1.8869                 1.5151
 Frc consts  --      1.5592                 1.6185                 1.4106
 IR Inten    --     47.0184                14.0645                 6.5819

                     37                     38                     39
                      A                      A                      A
 Frequencies --   1289.3265              1326.0363              1347.6054
 Red. masses --      2.2660                 4.6168                 2.2672
 Frc consts  --      2.2194                 4.7830                 2.4258
 IR Inten    --     19.9217                41.3490                 7.4573

                     40                     41                     42
                      A                      A                      A
 Frequencies --   1417.9587              1434.7837              1498.9182
 Red. masses --      5.6364                 2.4603                 4.6162
 Frc consts  --      6.6769                 2.9840                 6.1107
 IR Inten    --      6.0208                23.7957                38.0743

                     43                     44                     45
                      A                      A                      A
 Frequencies --   1512.9863              1600.5204              1620.3377
 Red. masses --      3.9357                 5.0605                 9.5043
 Frc consts  --      5.3082                 7.6377                14.7022
 IR Inten    --      0.1333                17.4759                72.1519

                     46                     47                     48
                      A                      A                      A
 Frequencies --   1677.9558              1688.9915              1842.5525
 Red. masses --      7.0873                 7.2337                12.1811
 Frc consts  --     11.7569                12.1581                24.3655
 IR Inten    --      3.0484               140.7307               636.7363

                     49                     50                     51
                      A                      A                      A
 Frequencies --   3188.4730              3200.7796              3243.5898
 Red. masses --      1.0903                 1.0910                 1.0944
 Frc consts  --      6.5309                 6.5855                 6.7838
 IR Inten    --      9.1531                 8.8764                 1.3863

                     52                     53                     54
                      A                      A                      A
 Frequencies --   3247.8606              3274.0190              3305.2552
 Red. masses --      1.0932                 1.0920                 1.1048
 Frc consts  --      6.7942                 6.8967                 7.1113
 IR Inten    --      0.1703                 2.6700                 0.6189

 - Thermochemistry -
 -------------------
 Temperature   298.150 Kelvin.  Pressure   1.00000 Atm.
 Atom     1 has atomic number  6 and mass  12.00000

 Molecular mass:   186.03169 amu.
 Principal axes and moments of inertia in atomic units:
                           1         2         3
     Eigenvalues --   803.788144203.008255006.79634
           X            0.99998  -0.00555   0.00000
           Y            0.00555   0.99998  -0.00001
           Z           -0.00000   0.00001   1.00000
 This molecule is an asymmetric top.
 Rotational symmetry number  1.
 Warning -- assumption of classical behavior for rotation
           may cause significant error
 Rotational temperatures (Kelvin)      0.10776     0.02061     0.01730
 Rotational constants (GHZ):           2.24529     0.42939     0.36046
 Zero-point vibrational energy     379231.5 (Joules/Mol)
                                   90.63851 (Kcal/Mol)
 Warning -- explicit consideration of  14 degrees of freedom as
           vibrations may cause significant error
 Vibrational temperatures:    114.00   176.89   268.28   343.66   395.61
          (Kelvin)            502.72   537.91   573.56   592.34   652.83
                              720.59   795.78   856.40   885.51   957.59
                             1049.20  1070.90  1072.95  1104.29  1112.65
                             1175.47  1205.35  1231.43  1235.53  1244.82
                             1282.67  1301.16  1343.08  1447.44  1532.05
                             1593.07  1632.38  1680.88  1720.85  1735.98
                             1808.60  1855.05  1907.87  1938.90  2040.13
                             2064.33  2156.61  2176.85  2302.79  2331.30
                             2414.20  2430.08  2651.02  4587.50  4605.21
                             4666.80  4672.95  4710.58  4755.53

 Zero-point correction=                           0.144442 (Hartree/Particle)
 Thermal correction to Energy=                    0.153894
 Thermal correction to Enthalpy=                  0.154839
 Thermal correction to Gibbs Free Energy=         0.109309
 Sum of electronic and zero-point Energies=           -648.344787
 Sum of electronic and thermal Energies=              -648.335335
 Sum of electronic and thermal Enthalpies=            -648.334391
 Sum of electronic and thermal Free Energies=         -648.379920

                     E (Thermal)             CV                S
                      KCal/Mol        Cal/Mol-Kelvin    Cal/Mol-Kelvin
 Total                   96.570             38.888             95.824
 Electronic               0.000              0.000              0.000
 Translational            0.889              2.981             41.568
 Rotational               0.889              2.981             31.204
 Vibrational             94.793             32.927             23.052
 Vibration     1          0.600              1.963              3.910
 Vibration     2          0.610              1.930              3.054
 Vibration     3          0.632              1.858              2.263
 Vibration     4          0.657              1.781              1.811
 Vibration     5          0.677              1.720              1.565
 Vibration     6          0.727              1.576              1.169
 Vibration     7          0.745              1.526              1.064
 Vibration     8          0.765              1.473              0.968
 Vibration     9          0.776              1.445              0.921
 Vibration    10          0.812              1.353              0.785
 Vibration    11          0.856              1.248              0.656
 Vibration    12          0.908              1.133              0.538
 Vibration    13          0.953              1.042              0.458
 Vibration    14          0.975              0.999              0.424

 Optimization completed.
    -- Stationary point found.

 1\1\GINC-NODE112\Freq\RB3LYP\6-31G(d)\C11H6O3\VSC10255\10-Dec-2020\0\\
 #N Geom=AllCheck Guess=TCheck SCRF=Check GenChk RB3LYP/6-31G(d) Freq\\
 CID_6199_JID_4337_neutraal\\0,1\C,-1.665776005,1.7369106721,0.01677336
 11\C,-2.869840117,1.1241112241,0.0199038053\C,-2.988179953,-0.32938383
 09,0.0172391731\O,-4.017410266,-0.9614024863,0.0186837197\O,-1.7873493
 887,-1.0406468209,0.0105463778\C,-0.562743264,-0.4381990616,0.00727334
 36\C,0.5483911138,-1.2784239632,0.0008711923\C,1.7819700001,-0.6482247
 46,-0.0023112563\C,1.9576975045,0.756107421,0.000517668\C,3.3890321852

 Normal termination of Gaussian 16 at Thu Dec 10 09:23:03 2020.

 ----------------------------------------------------------------------
 # B3LYP/6-311++G(d,p) empiricaldispersion=gd3bj scf=xqc pop=npa geom=c
 heck
 ----------------------------------------------------------------------

 ----------------------------------
 CID_6199_JID_4337_Energie_neutraal
 ----------------------------------
 Structure from the checkpoint file:  "JID_4337.chk"
 Charge =  0 Multiplicity = 1

 SCF Done:  E(RB3LYP) =  -648.660373648     A.U. after   16 cycles
 Normal termination of Gaussian 16 at Thu Dec 10 09:25:21 2020.

 ----------------------------------------------------------------------
 # B3LYP/6-311++G(d,p) empiricaldispersion=gd3bj scf=xqc pop=npa geom=c
 heck
 ----------------------------------------------------------------------

 --------------------------------
 CID_6199_JID_4337_Energie_kation
 --------------------------------
 Structure from the checkpoint file:  "JID_4337.chk"
 Charge =  1 Multiplicity = 2

 SCF Done:  E(UB3LYP) =  -648.357781539     A.U. after   26 cycles
 Normal termination of Gaussian 16 at Thu Dec 10 09:30:46 2020.
 Gaussian 16:  ES64L-G16RevA.03 25-Dec-2016

 -------------------------------
 CID_6199_JID_4337_Energie_anion
 -------------------------------
 Structure from the checkpoint file:  "JID_4337.chk"
 Charge = -1 Multiplicity = 2

                         Standard orientation:
 ---------------------------------------------------------------------
 Center     Atomic      Atomic             Coordinates (Angstroms)
 Number     Number       Type             X           Y           Z
 ---------------------------------------------------------------------
      1          6           0       -1.738677    1.674651   -0.000018
      2          6           0       -2.938475    1.053533    0.000021
      3          6           0       -3.046744   -0.400749    0.000493
      4          8           0       -4.071575   -1.039878   -0.000437
      5          8           0       -1.841004   -1.103689    0.000148
      6          6           0       -0.620592   -0.492781    0.000070
      7          6           0        0.496346   -1.325300   -0.000009
      8          6           0        1.725538   -0.686579   -0.000031
      9          6           0        1.891532    0.718940    0.000002
     10          6           0        3.321423    0.933834   -0.000170
     11          6           0        3.886280   -0.296332    0.000076
     12          8           0        2.942457   -1.303446   -0.000059
     13          6           0        0.756969    1.526065    0.000046
     14          6           0       -0.510071    0.923266    0.000089
     15          1           0       -1.679167    2.760482   -0.000211
     16          1           0       -3.877641    1.593401   -0.000229
     17          1           0        0.389118   -2.402944   -0.000025
     18          1           0        3.842834    1.880232   -0.000292
     19          1           0        4.910737   -0.635874    0.000142
     20          1           0        0.833923    2.609524   -0.000005
 ---------------------------------------------------------------------

 SCF Done:  E(UB3LYP) =  -648.681348939     A.U. after   22 cycles

 The electronic state is 2-A.
 Alpha  occ. eigenvalues --  -19.06436 -19.02533 -18.93500 -10.12918 -10.10654
 Alpha  occ. eigenvalues --  -10.10588 -10.09455 -10.05677 -10.04710 -10.03999
 Alpha  occ. eigenvalues --  -10.03904 -10.02782 -10.02175 -10.01039  -0.98672
 Alpha  occ. eigenvalues --   -0.95695  -0.86911  -0.72675  -0.67733  -0.66446
 Alpha  occ. eigenvalues --   -0.60980  -0.60057  -0.52097  -0.49896  -0.48210
 Alpha  occ. eigenvalues --   -0.46369  -0.41468  -0.40122  -0.37139  -0.33739
 Alpha  occ. eigenvalues --   -0.33708  -0.32131  -0.31759  -0.31561  -0.29664
 Alpha  occ. eigenvalues --   -0.28809  -0.27767  -0.27317  -0.24062  -0.23483
 Alpha  occ. eigenvalues --   -0.22769  -0.20285  -0.19418  -0.16967  -0.15939
 Alpha  occ. eigenvalues --   -0.12082  -0.09897  -0.08432   0.03982
 Alpha virt. eigenvalues --    0.07888   0.09410   0.09997   0.10344   0.11346
 Alpha virt. eigenvalues --    0.12083   0.12983   0.14244   0.15092   0.15483
 Alpha virt. eigenvalues --    0.15713   0.15849   0.17478   0.17718   0.17842

  Beta  occ. eigenvalues --  -19.06472 -19.02470 -18.93214 -10.12790 -10.10670
  Beta  occ. eigenvalues --  -10.10503 -10.09297 -10.05625 -10.04776 -10.04044
  Beta  occ. eigenvalues --  -10.03842 -10.02355 -10.01792 -10.00825  -0.98636
  Beta  occ. eigenvalues --   -0.95517  -0.86476  -0.72412  -0.67606  -0.65853
  Beta  occ. eigenvalues --   -0.60733  -0.59495  -0.51681  -0.49666  -0.47847
  Beta  occ. eigenvalues --   -0.45960  -0.41244  -0.39967  -0.36971  -0.33486
  Beta  occ. eigenvalues --   -0.33426  -0.31933  -0.31576  -0.30976  -0.29529
  Beta  occ. eigenvalues --   -0.28595  -0.27685  -0.27056  -0.23810  -0.22645
  Beta  occ. eigenvalues --   -0.22521  -0.19292  -0.19186  -0.16212  -0.14671
  Beta  occ. eigenvalues --   -0.11775  -0.08422  -0.07290
  Beta virt. eigenvalues --    0.07866   0.09405   0.09759   0.10330   0.11094
  Beta virt. eigenvalues --    0.11327   0.12079   0.13551   0.14249   0.15470
  Beta virt. eigenvalues --    0.15570   0.15718   0.16231   0.17473   0.17855

 Mulliken charges and spin densities:
               1          2
     1  C    0.015371   0.196400
     2  C   -0.362233   0.202586
     3  C    0.187441   0.085412
     4  O   -0.405120   0.092632
     5  O   -0.165636   0.013916
     6  C   -1.838753  -0.024024
     7  C   -0.815149   0.064685
     8  C   -1.127678   0.057555
     9  C    0.833745  -0.048127
    10  C    0.102962   0.038720
    11  C   -0.015923   0.067670
    12  O   -0.090980  -0.012134
    13  C    0.035427   0.350784
    14  C    1.913893  -0.013170
    15  H    0.087603  -0.026411
    16  H    0.139762  -0.012302
    17  H    0.165319  -0.004344
    18  H    0.121181  -0.002982
    19  H    0.150671  -0.005889
    20  H    0.068099  -0.020977
 Sum of Mulliken charges =  -1.00000   1.00000

 Dipole moment (field-independent basis, Debye):
    X=              6.9664    Y=              2.2688    Z=              0.0006  Tot=              7.3266
 Quadrupole moment (field-independent basis, Debye-Ang):
   XX=           -130.6341   YY=            -89.3925   ZZ=            -87.8636
   XY=             -6.8068   XZ=             -0.0029   YZ=             -0.0033

 Summary of Natural Population Analysis:

                                       Natural Population
                Natural  -----------------------------------------------
    Atom  No    Charge         Core      Valence    Rydberg      Total
 -----------------------------------------------------------------------
      C    1   -0.00369      0.99954     1.99488    0.00927     3.00369
      C    2   -0.13026      0.99951     2.12176    0.00900     3.13026
      C    3    0.39581      0.99961     1.58126    0.02332     2.60419
      O    4   -0.29028      0.99987     3.28316    0.00726     4.29028
      O    5   -0.26826      0.99983     3.25845    0.00998     4.26826
      C    6    0.17751      0.99938     1.81136    0.01175     2.82249
      C    7   -0.14584      0.99948     2.13752    0.00884     3.14584
      C    8    0.18631      0.99938     1.80203    0.01228     2.81369
      C    9   -0.08490      0.99951     2.07713    0.00826     3.08490
      C   10   -0.13905      0.99953     2.13146    0.00806     3.13905
      C   11    0.06715      0.99951     1.91903    0.01431     2.93285
      O   12   -0.25147      0.99986     3.24317    0.00843     4.25147
      C   13    0.00908      0.99941     1.98284    0.00866     2.99092
      C   14   -0.08185      0.99950     2.07459    0.00776     3.08185
      H   15    0.08401      0.00000     0.41414    0.00185     0.41599
      H   16    0.09526      0.00000     0.40366    0.00108     0.40474
      H   17    0.10630      0.00000     0.39213    0.00157     0.39370
      H   18    0.10164      0.00000     0.39748    0.00088     0.39836
      H   19    0.08606      0.00000     0.41304    0.00090     0.41394
      H   20    0.08647      0.00000     0.41159    0.00194     0.41353
 =======================================================================
   * Total *    0.00000     13.99394    33.85067    0.15540    48.00000

 Normal termination of Gaussian 16 at Thu Dec 10 09:35:22 2020.
