 Gaussian 16, Revision A.03,

 -----------------------------------------------------------
 # opt freq B3LYP/6-31G(d) empiricaldispersion=gd3bj scf=xqc
 -----------------------------------------------------------

 -------------------------------
 CID_152587219_JID_8693_neutraal
 -------------------------------
 Symbolic Z-matrix:
 Charge =  0 Multiplicity = 1

 SCF Done:  E(RB3LYP) =  -828.893628579     A.U. after   16 cycles
 SCF Done:  E(RB3LYP) =  -828.903239293     A.U. after   15 cycles
 SCF Done:  E(RB3LYP) =  -828.903707720     A.U. after   13 cycles
 SCF Done:  E(RB3LYP) =  -828.904466306     A.U. after   13 cycles
 SCF Done:  E(RB3LYP) =  -828.904681431     A.U. after   11 cycles
 SCF Done:  E(RB3LYP) =  -828.905074339     A.U. after   13 cycles
 SCF Done:  E(RB3LYP) =  -828.906120489     A.U. after   16 cycles
 SCF Done:  E(RB3LYP) =  -828.907067743     A.U. after   16 cycles
 SCF Done:  E(RB3LYP) =  -828.909219156     A.U. after   15 cycles
 SCF Done:  E(RB3LYP) =  -828.911615255     A.U. after   16 cycles
 SCF Done:  E(RB3LYP) =  -828.912428287     A.U. after    9 cycles
 SCF Done:  E(RB3LYP) =  -828.912428926     A.U. after    8 cycles
 SCF Done:  E(RB3LYP) =  -828.912429140     A.U. after    8 cycles
 SCF Done:  E(RB3LYP) =  -828.912429193     A.U. after    7 cycles
 SCF Done:  E(RB3LYP) =  -828.912429212     A.U. after    7 cycles
 Optimization completed.
    -- Stationary point found.
 Normal termination of Gaussian 16 at Fri Dec 11 22:15:32 2020.

 --------------------------------------------------------------------
 #N Geom=AllCheck Guess=TCheck SCRF=Check GenChk RB3LYP/6-31G(d) Freq
 --------------------------------------------------------------------

 Structure from the checkpoint file:  "JID_8693.chk"
 -------------------------------
 CID_152587219_JID_8693_neutraal
 -------------------------------
 Charge =  0 Multiplicity = 1

 SCF Done:  E(RB3LYP) =  -828.912429212     A.U. after    1 cycles

  Exact polarizability: 319.545  -7.034 142.320   3.545  -1.023  70.561
 Approx polarizability: 470.782 -22.046 264.736   9.669  -0.059 111.423

                      1                      2                      3
                      A                      A                      A
 Frequencies --     31.1892                35.4949                59.7547
 Red. masses --      3.2602                 7.0449                 1.3798
 Frc consts  --      0.0019                 0.0052                 0.0029
 IR Inten    --      0.1010                 0.1104                 0.3130

                      4                      5                      6
                      A                      A                      A
 Frequencies --     72.4904                82.0549                98.7748
 Red. masses --      4.3513                 3.3069                 3.1911
 Frc consts  --      0.0135                 0.0131                 0.0183
 IR Inten    --      0.1799                 0.5978                 0.1935

                      7                      8                      9
                      A                      A                      A
 Frequencies --    130.4497               149.0818               167.0743
 Red. masses --      3.4834                 4.7485                 7.2031
 Frc consts  --      0.0349                 0.0622                 0.1185
 IR Inten    --      4.6327                 1.6063                 3.2949

                     10                     11                     12
                      A                      A                      A
 Frequencies --    231.5762               255.3701               293.8448
 Red. masses --      5.4294                 5.1995                 5.8533
 Frc consts  --      0.1716                 0.1998                 0.2978
 IR Inten    --      1.5188                 1.9077                 0.7765

                     13                     14                     15
                      A                      A                      A
 Frequencies --    312.5168               334.4029               387.3130
 Red. masses --      4.6849                 5.0822                 6.9431
 Frc consts  --      0.2696                 0.3348                 0.6137
 IR Inten    --      2.5467                 3.4109                 0.5774

                     16                     17                     18
                      A                      A                      A
 Frequencies --    407.0882               447.8358               470.5917
 Red. masses --      6.5992                 3.0586                10.3095
 Frc consts  --      0.6443                 0.3614                 1.3452
 IR Inten    --      1.5975                 4.4546                 1.6147

                     19                     20                     21
                      A                      A                      A
 Frequencies --    532.7745               584.6177               591.2646
 Red. masses --     13.6007                 5.0313                 5.9983
 Frc consts  --      2.2746                 1.0131                 1.2355
 IR Inten    --      8.2540                 9.2821                 1.5363

                     22                     23                     24
                      A                      A                      A
 Frequencies --    630.3666               645.4725               678.8232
 Red. masses --      3.7310                 6.8970                 7.6693
 Frc consts  --      0.8735                 1.6930                 2.0822
 IR Inten    --      2.3618                10.2687                15.0417

                     25                     26                     27
                      A                      A                      A
 Frequencies --    731.0718               749.9374               760.6421
 Red. masses --     10.1792                 5.4255                 5.6509
 Frc consts  --      3.2054                 1.7978                 1.9263
 IR Inten    --      1.7848                 2.9495                 7.5236

                     28                     29                     30
                      A                      A                      A
 Frequencies --    761.9362               809.1859               826.9784
 Red. masses --      4.2939                 8.1328                 1.6087
 Frc consts  --      1.4687                 3.1375                 0.6482
 IR Inten    --      1.0900                12.0993                22.7074

                     31                     32                     33
                      A                      A                      A
 Frequencies --    842.1951               848.3997               855.5867
 Red. masses --      1.3565                 4.5437                 1.4788
 Frc consts  --      0.5669                 1.9269                 0.6378
 IR Inten    --      1.5632                 6.2918                27.1788

                     34                     35                     36
                      A                      A                      A
 Frequencies --    911.2143               953.4018               962.0188
 Red. masses --      8.4420                 1.2856                 3.8715
 Frc consts  --      4.1299                 0.6885                 2.1111
 IR Inten    --     17.0865                 0.1277                33.8679

                     37                     38                     39
                      A                      A                      A
 Frequencies --    972.3555               999.7112              1023.9483
 Red. masses --      3.1918                 6.6349                 5.2261
 Frc consts  --      1.7780                 3.9069                 3.2283
 IR Inten    --      9.9657                67.8177                12.0968

                     40                     41                     42
                      A                      A                      A
 Frequencies --   1100.7812              1115.9436              1126.1092
 Red. masses --      2.4022                 3.2729                 1.6202
 Frc consts  --      1.7150                 2.4014                 1.2106
 IR Inten    --     21.4734               128.8290                 3.8251

                     43                     44                     45
                      A                      A                      A
 Frequencies --   1163.5591              1165.4937              1176.7747
 Red. masses --      1.8416                 1.2988                 2.1732
 Frc consts  --      1.4690                 1.0395                 1.7732
 IR Inten    --      2.2839                 0.3328                42.5832

                     46                     47                     48
                      A                      A                      A
 Frequencies --   1224.0515              1239.7131              1259.8496
 Red. masses --      1.1411                 2.4284                 1.1001
 Frc consts  --      1.0074                 2.1990                 1.0287
 IR Inten    --      2.8988                28.3075                 1.3947

                     49                     50                     51
                      A                      A                      A
 Frequencies --   1282.9263              1326.7639              1342.7628
 Red. masses --      2.3200                 2.7760                 1.6697
 Frc consts  --      2.2498                 2.8791                 1.7737
 IR Inten    --     52.2583                16.0414                91.6383

                     52                     53                     54
                      A                      A                      A
 Frequencies --   1355.1576              1374.7328              1385.3240
 Red. masses --      3.7557                 5.5218                 2.0393
 Frc consts  --      4.0637                 6.1484                 2.3058
 IR Inten    --      2.9213               196.6176                42.6686

                     55                     56                     57
                      A                      A                      A
 Frequencies --   1387.2327              1429.3516              1475.4153
 Red. masses --      3.3171                 4.6195                 1.7202
 Frc consts  --      3.7610                 5.5607                 2.2063
 IR Inten    --     24.8808               119.3618                 8.5466

                     58                     59                     60
                      A                      A                      A
 Frequencies --   1505.2798              1522.9235              1527.5846
 Red. masses --      2.0385                 1.0768                 1.1333
 Frc consts  --      2.7214                 1.4714                 1.5582
 IR Inten    --     21.5679                 7.3471                 6.1052

                     61                     62                     63
                      A                      A                      A
 Frequencies --   1529.1850              1544.4506              1551.7867
 Red. masses --      1.6400                 2.1608                 1.1646
 Frc consts  --      2.2596                 3.0367                 1.6524
 IR Inten    --     82.0429                 8.5251                11.3075

                     64                     65                     66
                      A                      A                      A
 Frequencies --   1566.0445              1628.1167              1679.5956
 Red. masses --      2.9832                 7.5367                 7.2114
 Frc consts  --      4.3107                11.7708                11.9861
 IR Inten    --     46.0268                 3.5061                56.7364

                     67                     68                     69
                      A                      A                      A
 Frequencies --   1730.3353              2263.9970              3061.7814
 Red. masses --     10.0181                13.9854                 1.0422
 Frc consts  --     17.6724                42.2355                 5.7563
 IR Inten    --    187.1675              1087.0586                58.2001

                     70                     71                     72
                      A                      A                      A
 Frequencies --   3062.1592              3079.6529              3097.8795
 Red. masses --      1.0583                 1.0645                 1.1010
 Frc consts  --      5.8467                 5.9485                 6.2254
 IR Inten    --     30.6170                49.6436                24.9944

                     73                     74                     75
                      A                      A                      A
 Frequencies --   3117.2575              3136.5589              3200.5772
 Red. masses --      1.1059                 1.1098                 1.0884
 Frc consts  --      6.3314                 6.4330                 6.5688
 IR Inten    --     18.0161                35.0045                 3.7109

                     76                     77                     78
                      A                      A                      A
 Frequencies --   3224.5499              3225.6211              3227.1702
 Red. masses --      1.0940                 1.0966                 1.0921
 Frc consts  --      6.7023                 6.7224                 6.7010
 IR Inten    --      6.6248                 2.4898                 1.5418

 - Thermochemistry -
 -------------------
 Temperature   298.150 Kelvin.  Pressure   1.00000 Atm.
 Atom     1 has atomic number  6 and mass  12.00000

 Molecular mass:   242.09161 amu.
 Principal axes and moments of inertia in atomic units:
                           1         2         3
     Eigenvalues --  1073.82396********************
           X            0.99998  -0.00579  -0.00004
           Y            0.00579   0.99996  -0.00725
           Z            0.00008   0.00725   0.99997
 This molecule is an asymmetric top.
 Rotational symmetry number  1.
 Warning -- assumption of classical behavior for rotation
           may cause significant error
 Rotational temperatures (Kelvin)      0.08066     0.00864     0.00787
 Rotational constants (GHZ):           1.68067     0.18006     0.16389
 Zero-point vibrational energy     556582.1 (Joules/Mol)
                                  133.02631 (Kcal/Mol)
 Warning -- explicit consideration of  21 degrees of freedom as
           vibrations may cause significant error
 Vibrational temperatures:     44.87    51.07    85.97   104.30   118.06
          (Kelvin)            142.11   187.69   214.50   240.38   333.19
                              367.42   422.78   449.64   481.13   557.26
                              585.71   644.34   677.08   766.54   841.13
                              850.70   906.96   928.69   976.68  1051.85
                             1078.99  1094.39  1096.26  1164.24  1189.84
                             1211.73  1220.66  1231.00  1311.03  1371.73
                             1384.13  1399.00  1438.36  1473.23  1583.78
                             1605.59  1620.22  1674.10  1676.89  1693.12
                             1761.14  1783.67  1812.64  1845.84  1908.92
                             1931.94  1949.77  1977.93  1993.17  1995.92
                             2056.52  2122.79  2165.76  2191.15  2197.85
                             2200.16  2222.12  2232.67  2253.19  2342.50
                             2416.56  2489.57  3257.39  4405.22  4405.76
                             4430.93  4457.16  4485.04  4512.81  4604.92
                             4639.41  4640.95  4643.18

 Zero-point correction=                           0.211991 (Hartree/Particle)
 Thermal correction to Energy=                    0.227140
 Thermal correction to Enthalpy=                  0.228084
 Thermal correction to Gibbs Free Energy=         0.167429
 Sum of electronic and zero-point Energies=           -828.700438
 Sum of electronic and thermal Energies=              -828.685289
 Sum of electronic and thermal Enthalpies=            -828.684345
 Sum of electronic and thermal Free Energies=         -828.745000

                     E (Thermal)             CV                S
                      KCal/Mol        Cal/Mol-Kelvin    Cal/Mol-Kelvin
 Total                  142.533             55.728            127.659
 Electronic               0.000              0.000              0.000
 Translational            0.889              2.981             42.353
 Rotational               0.889              2.981             33.138
 Vibrational            140.755             49.766             52.167
 Vibration     1          0.594              1.983              5.752
 Vibration     2          0.594              1.982              5.496
 Vibration     3          0.597              1.973              4.465
 Vibration     4          0.599              1.967              4.085
 Vibration     5          0.600              1.961              3.841
 Vibration     6          0.604              1.950              3.478
 Vibration     7          0.612              1.923              2.939
 Vibration     8          0.618              1.904              2.684
 Vibration     9          0.624              1.883              2.468
 Vibration    10          0.653              1.793              1.867
 Vibration    11          0.666              1.754              1.693
 Vibration    12          0.689              1.685              1.452
 Vibration    13          0.701              1.650              1.349
 Vibration    14          0.716              1.607              1.239
 Vibration    15          0.756              1.497              1.010
 Vibration    16          0.772              1.455              0.937
 Vibration    17          0.807              1.366              0.802
 Vibration    18          0.828              1.315              0.736
 Vibration    19          0.888              1.178              0.581
 Vibration    20          0.942              1.065              0.477
 Vibration    21          0.949              1.050              0.465

 Optimization completed.
    -- Stationary point found.
 Normal termination of Gaussian 16 at Fri Dec 11 22:24:54 2020.

 ----------------------------------------------------------------------
 # B3LYP/6-311++G(d,p) empiricaldispersion=gd3bj scf=xqc pop=npa geom=c
 heck
 ----------------------------------------------------------------------

 ---------------------------------------
 CID_152587219_JID_8693_Energie_neutraal
 ---------------------------------------
 Structure from the checkpoint file:  "JID_8693.chk"
 Charge =  0 Multiplicity = 1

 SCF Done:  E(RB3LYP) =  -829.125956167     A.U. after   17 cycles
 Normal termination of Gaussian 16 at Fri Dec 11 22:28:43 2020.

 ----------------------------------------------------------------------
 # B3LYP/6-311++G(d,p) empiricaldispersion=gd3bj scf=xqc pop=npa geom=c
 heck
 ----------------------------------------------------------------------

 -------------------------------------
 CID_152587219_JID_8693_Energie_kation
 -------------------------------------
 Structure from the checkpoint file:  "JID_8693.chk"
 Charge =  1 Multiplicity = 2

 SCF Done:  E(UB3LYP) =  -828.845437309     A.U. after   27 cycles
 Normal termination of Gaussian 16 at Fri Dec 11 22:37:10 2020.
 Gaussian 16:  ES64L-G16RevA.03 25-Dec-2016

 ----------------------------------------------------------------------
 # B3LYP/6-311++G(d,p) empiricaldispersion=gd3bj scf=xqc pop=npa geom=c
 heck
 ----------------------------------------------------------------------

 ------------------------------------
 CID_152587219_JID_8693_Energie_anion
 ------------------------------------
 Structure from the checkpoint file:  "JID_8693.chk"
 Charge = -1 Multiplicity = 2

                         Standard orientation:
 ---------------------------------------------------------------------
 Center     Atomic      Atomic             Coordinates (Angstroms)
 Number     Number       Type             X           Y           Z
 ---------------------------------------------------------------------
      1          6           0        1.003510   -2.226925    0.212362
      2          7           0        0.663153   -0.819323    0.066258
      3          6           0       -0.635505   -0.354694    0.030450
      4          6           0       -0.533121    1.056692   -0.039515
      5          6           0       -1.699348    1.832875   -0.092279
      6          6           0       -2.924029    1.184724   -0.068551
      7          6           0       -3.001646   -0.228342    0.006441
      8          6           0       -1.857693   -1.024362    0.057778
      9          7           0       -4.235765   -0.930542    0.033249
     10          7           0       -5.283760   -0.276374   -0.012062
     11          7           0       -6.320051    0.201746   -0.047637
     12          7           0        0.790369    1.437905   -0.043738
     13          6           0        1.474991    0.313376    0.020876
     14          6           0        2.941691    0.285454    0.031259
     15          7           0        3.687262    1.258037    0.376790
     16          6           0        5.072108    0.818711    0.162364
     17          6           0        4.963852   -0.664706   -0.272720
     18          8           0        3.534509   -0.878490   -0.401716
     19          1           0        0.512640   -2.630940    1.103905
     20          1           0        0.662588   -2.786941   -0.664951
     21          1           0        2.080513   -2.332506    0.302825
     22          1           0       -1.635280    2.914404   -0.147468
     23          1           0       -3.841296    1.764380   -0.106880
     24          1           0       -1.947219   -2.103190    0.112442
     25          1           0        5.649692    0.945624    1.083878
     26          1           0        5.536373    1.448835   -0.605370
     27          1           0        5.422756   -0.881741   -1.240007
     28          1           0        5.345849   -1.366966    0.474537
 ---------------------------------------------------------------------

 SCF Done:  E(UB3LYP) =  -829.139469580     A.U. after   33 cycles
 SCF Done:  E(UB3LYP) =  -829.139469580     a.u. after    1 cycles

 The electronic state is 2-A.
 Alpha  occ. eigenvalues --  -19.03771 -14.36112 -14.26468 -14.25178 -14.23023
 Alpha  occ. eigenvalues --  -14.15152 -14.14819 -10.12624 -10.11928 -10.09607
 Alpha  occ. eigenvalues --  -10.09081 -10.08819 -10.08516 -10.07515 -10.05499
 Alpha  occ. eigenvalues --  -10.04751 -10.03954 -10.03767  -1.02715  -0.96706
 Alpha  occ. eigenvalues --   -0.88172  -0.87121  -0.77742  -0.75569  -0.72052
 Alpha  occ. eigenvalues --   -0.66178  -0.63000  -0.62011  -0.59221  -0.53698
 Alpha  occ. eigenvalues --   -0.52473  -0.50479  -0.46462  -0.44515  -0.41749
 Alpha  occ. eigenvalues --   -0.40269  -0.40051  -0.39607  -0.38965  -0.37178
 Alpha  occ. eigenvalues --   -0.35473  -0.35296  -0.33602  -0.33219  -0.31739
 Alpha  occ. eigenvalues --   -0.31690  -0.29876  -0.29329  -0.28777  -0.27281
 Alpha  occ. eigenvalues --   -0.26622  -0.25883  -0.24396  -0.24010  -0.23376
 Alpha  occ. eigenvalues --   -0.19424  -0.17763  -0.16316  -0.15058  -0.13582
 Alpha  occ. eigenvalues --   -0.13148  -0.10615  -0.08349   0.03873
 Alpha virt. eigenvalues --    0.06899   0.07337   0.08380   0.09265   0.09583
 Alpha virt. eigenvalues --    0.09819   0.10085   0.11368   0.11508   0.12477
 Alpha virt. eigenvalues --    0.12602   0.12618   0.12966   0.14469   0.15052

  Beta  occ. eigenvalues --  -19.03728 -14.35937 -14.26294 -14.25281 -14.22878
  Beta  occ. eigenvalues --  -14.14779 -14.14686 -10.12624 -10.11813 -10.09611
  Beta  occ. eigenvalues --  -10.09100 -10.08524 -10.08316 -10.07561 -10.05509
  Beta  occ. eigenvalues --  -10.04828 -10.03792 -10.03564  -1.02439  -0.96563
  Beta  occ. eigenvalues --   -0.87894  -0.87031  -0.77228  -0.75255  -0.71774
  Beta  occ. eigenvalues --   -0.65935  -0.62723  -0.61853  -0.59040  -0.53217
  Beta  occ. eigenvalues --   -0.52343  -0.50374  -0.46222  -0.44316  -0.41557
  Beta  occ. eigenvalues --   -0.40147  -0.39402  -0.39308  -0.38793  -0.37057
  Beta  occ. eigenvalues --   -0.35179  -0.34958  -0.33403  -0.33052  -0.31601
  Beta  occ. eigenvalues --   -0.31460  -0.29754  -0.29099  -0.28223  -0.27125
  Beta  occ. eigenvalues --   -0.26339  -0.25295  -0.24298  -0.23932  -0.22644
  Beta  occ. eigenvalues --   -0.19437  -0.17124  -0.15535  -0.14629  -0.13165
  Beta  occ. eigenvalues --   -0.12200  -0.09764  -0.07067
  Beta virt. eigenvalues --    0.06838   0.07501   0.08303   0.08646   0.09515
  Beta virt. eigenvalues --    0.09612   0.10048   0.10912   0.11324   0.11600
  Beta virt. eigenvalues --    0.12458   0.12587   0.12885   0.13949   0.14433

 Mulliken charges and spin densities:
               1          2
     1  C   -0.362229  -0.040926
     2  N   -0.067098   0.041870
     3  C    0.980370  -0.011296
     4  C    0.129072  -0.023095
     5  C   -0.910091   0.176619
     6  C    0.612906  -0.064790
     7  C   -1.321732   0.100282
     8  C   -1.075404   0.144033
     9  N    0.001651  -0.048644
    10  N    0.342498   0.046601
    11  N   -0.287863   0.103828
    12  N   -0.047113   0.051911
    13  C    0.583691   0.206965
    14  C   -0.385805   0.071875
    15  N   -0.096267   0.170169
    16  C   -0.230122  -0.028314
    17  C   -0.060177   0.000125
    18  O   -0.112480   0.001045
    19  H    0.107974   0.040544
    20  H    0.145284   0.013353
    21  H    0.170836   0.003007
    22  H    0.140887  -0.010992
    23  H    0.144204   0.004775
    24  H    0.149808  -0.012066
    25  H    0.109753   0.018902
    26  H    0.105577   0.024811
    27  H    0.129202   0.005142
    28  H    0.102668   0.014265
 Sum of Mulliken charges =  -1.00000   1.00000

 Dipole moment (field-independent basis, Debye):
    X=              4.2258    Y=             -4.6062    Z=             -0.3107  Tot=              6.2587
 Quadrupole moment (field-independent basis, Debye-Ang):
   XX=           -171.2231   YY=           -119.1088   ZZ=           -112.2515
   XY=            -10.6716   XZ=             -2.0507   YZ=             -2.1384

 Summary of Natural Population Analysis:

                                       Natural Population
                Natural  -----------------------------------------------
    Atom  No    Charge         Core      Valence    Rydberg      Total
 -----------------------------------------------------------------------
      C    1   -0.17764      0.99965     2.17166    0.00633     3.17764
      N    2   -0.19555      0.99959     2.68512    0.01084     3.69555
      C    3    0.06957      0.99948     1.92024    0.01071     2.93043
      C    4    0.04851      0.99947     1.93934    0.01268     2.95149
      C    5   -0.05821      0.99954     2.04929    0.00938     3.05821
      C    6   -0.15380      0.99955     2.14609    0.00816     3.15380
      C    7    0.08488      0.99945     1.90445    0.01123     2.91512
      C    8   -0.10467      0.99950     2.09756    0.00761     3.10467
      N    9   -0.18525      0.99965     2.67245    0.01315     3.68525
      N   10    0.13355      0.99971     2.35036    0.01638     3.36645
      N   11   -0.04389      0.99982     2.53067    0.01340     3.54389
      N   12   -0.22315      0.99968     2.71332    0.01015     3.72315
      C   13    0.22382      0.99956     1.76027    0.01635     2.77618
      C   14    0.27451      0.99946     1.70583    0.02020     2.72549
      N   15   -0.20493      0.99967     2.69081    0.01444     3.70493
      C   16   -0.07201      0.99954     2.06113    0.01134     3.07201
      C   17   -0.03742      0.99965     2.02319    0.01457     3.03742
      O   18   -0.29216      0.99988     3.28216    0.01012     4.29216
      H   19    0.09117      0.00000     0.40744    0.00139     0.40883
      H   20    0.09138      0.00000     0.40730    0.00132     0.40862
      H   21    0.11267      0.00000     0.38633    0.00100     0.38733
      H   22    0.09648      0.00000     0.40166    0.00186     0.40352
      H   23    0.09629      0.00000     0.40215    0.00156     0.40371
      H   24    0.10024      0.00000     0.39858    0.00118     0.39976
      H   25    0.08238      0.00000     0.41413    0.00349     0.41762
      H   26    0.08230      0.00000     0.41406    0.00364     0.41770
      H   27    0.08287      0.00000     0.41559    0.00154     0.41713
      H   28    0.07908      0.00000     0.41930    0.00161     0.42092
 =======================================================================
   * Total *    0.00103     17.99284    44.77050    0.23563    62.99897

 Normal termination of Gaussian 16 at Fri Dec 11 22:47:49 2020.
