 Gaussian 16, Revision A.03,

 -----------------------------------------------------------
 # opt freq B3LYP/6-31G(d) empiricaldispersion=gd3bj scf=xqc
 -----------------------------------------------------------

 ------------------------------
 CID_57661711_JID_1368_neutraal
 ------------------------------
 Symbolic Z-matrix:
 Charge =  0 Multiplicity = 1

 SCF Done:  E(RB3LYP) =  -517.588962463     A.U. after   16 cycles
 SCF Done:  E(RB3LYP) =  -517.687466789     A.U. after   15 cycles
 SCF Done:  E(RB3LYP) =  -517.745349617     A.U. after   13 cycles
 SCF Done:  E(RB3LYP) =  -517.786804702     A.U. after   13 cycles
 SCF Done:  E(RB3LYP) =  -517.798120609     A.U. after   14 cycles
 SCF Done:  E(RB3LYP) =  -517.805023580     A.U. after   13 cycles
 SCF Done:  E(RB3LYP) =  -517.810245266     A.U. after   13 cycles
 SCF Done:  E(RB3LYP) =  -517.813044979     A.U. after   13 cycles
 SCF Done:  E(RB3LYP) =  -517.815629445     A.U. after   14 cycles
 SCF Done:  E(RB3LYP) =  -517.815369017     A.U. after   14 cycles
 SCF Done:  E(RB3LYP) =  -517.831573204     A.U. after   10 cycles
 SCF Done:  E(RB3LYP) =  -517.831610732     A.U. after   10 cycles
 SCF Done:  E(RB3LYP) =  -517.831643260     A.U. after   12 cycles
 SCF Done:  E(RB3LYP) =  -517.831648406     A.U. after   10 cycles
 SCF Done:  E(RB3LYP) =  -517.831648663     A.U. after    8 cycles
 Optimization completed.
    -- Stationary point found.
 Normal termination of Gaussian 16 at Tue Dec  8 19:58:36 2020.

 --------------------------------------------------------------------
 #N Geom=AllCheck Guess=TCheck SCRF=Check GenChk RB3LYP/6-31G(d) Freq
 --------------------------------------------------------------------

 Structure from the checkpoint file:  "JID_1368.chk"
 ------------------------------
 CID_57661711_JID_1368_neutraal
 ------------------------------
 Charge =  0 Multiplicity = 1

 SCF Done:  E(RB3LYP) =  -517.831648663     A.U. after    1 cycles

  Exact polarizability:  92.595  -2.479 102.755  -1.010  -4.488  81.944
 Approx polarizability: 115.829  -6.959 146.810  -3.716 -10.278 128.098

                      1                      2                      3
                      A                      A                      A
 Frequencies --     28.8269                59.1329                66.2785
 Red. masses --      4.5683                 3.3919                 5.6290
 Frc consts  --      0.0022                 0.0070                 0.0146
 IR Inten    --      1.1605                 1.7496                 0.5572

                      4                      5                      6
                      A                      A                      A
 Frequencies --     71.8313                86.8896               149.9046
 Red. masses --      3.9796                 2.3456                 2.7062
 Frc consts  --      0.0121                 0.0104                 0.0358
 IR Inten    --      3.1054                 4.6352                 0.1940

                      7                      8                      9
                      A                      A                      A
 Frequencies --    187.2480               231.7900               233.5011
 Red. masses --      3.4991                 4.5125                 1.4457
 Frc consts  --      0.0723                 0.1428                 0.0464
 IR Inten    --      0.8597                 0.6225                 3.2087

                     10                     11                     12
                      A                      A                      A
 Frequencies --    279.9015               311.3861               324.3327
 Red. masses --      2.4305                 3.3841                 2.6092
 Frc consts  --      0.1122                 0.1933                 0.1617
 IR Inten    --      1.7108                 2.3450                 0.6391

                     13                     14                     15
                      A                      A                      A
 Frequencies --    345.6158               475.3218               483.0116
 Red. masses --      2.2027                 2.3567                 5.4002
 Frc consts  --      0.1550                 0.3137                 0.7423
 IR Inten    --      3.1788                 5.9669                 9.1363

                     16                     17                     18
                      A                      A                      A
 Frequencies --    522.3142               593.1900               605.5739
 Red. masses --      2.9404                 3.1335                 1.1972
 Frc consts  --      0.4726                 0.6496                 0.2587
 IR Inten    --      1.5229                37.2442                55.2326

                     19                     20                     21
                      A                      A                      A
 Frequencies --    633.1808               648.1455               727.0192
 Red. masses --      1.3251                 1.5178                 3.8090
 Frc consts  --      0.3130                 0.3757                 1.1862
 IR Inten    --     45.4806                59.4023                53.1025

                     22                     23                     24
                      A                      A                      A
 Frequencies --    780.2427               851.2123               913.0977
 Red. masses --      1.4246                 2.9945                 2.2713
 Frc consts  --      0.5110                 1.2784                 1.1157
 IR Inten    --      0.8242                 1.2871                 6.3677

                     25                     26                     27
                      A                      A                      A
 Frequencies --    937.7404               950.1363               989.9518
 Red. masses --      2.6576                 3.0646                 1.8194
 Frc consts  --      1.3769                 1.6301                 1.0505
 IR Inten    --      7.9365                14.2403                22.6233

                     28                     29                     30
                      A                      A                      A
 Frequencies --   1059.4573              1076.1074              1115.7821
 Red. masses --      2.5744                 2.1883                 1.9142
 Frc consts  --      1.7025                 1.4931                 1.4041
 IR Inten    --     15.0994                 5.5534                19.1998

                     31                     32                     33
                      A                      A                      A
 Frequencies --   1131.1998              1166.3831              1190.7244
 Red. masses --      3.3791                 3.8257                 1.3304
 Frc consts  --      2.5476                 3.0665                 1.1113
 IR Inten    --     22.4160               113.6285                40.0089

                     34                     35                     36
                      A                      A                      A
 Frequencies --   1197.2538              1246.5585              1265.5047
 Red. masses --      1.4512                 1.5842                 1.1950
 Frc consts  --      1.2256                 1.4504                 1.1275
 IR Inten    --     43.2969                 6.9925                13.5938

                     37                     38                     39
                      A                      A                      A
 Frequencies --   1283.4196              1323.4157              1329.4517
 Red. masses --      1.2162                 1.2725                 1.2352
 Frc consts  --      1.1803                 1.3131                 1.2862
 IR Inten    --     29.2191                16.9939                 9.4294

                     40                     41                     42
                      A                      A                      A
 Frequencies --   1371.6955              1410.5916              1412.2296
 Red. masses --      1.5591                 1.4840                 1.4752
 Frc consts  --      1.7284                 1.7397                 1.7335
 IR Inten    --     99.9385                43.4301                23.7934

                     43                     44                     45
                      A                      A                      A
 Frequencies --   1438.1678              1495.9025              1503.6055
 Red. masses --      1.4160                 1.5203                 1.1601
 Frc consts  --      1.7256                 2.0045                 1.5453
 IR Inten    --     19.3574                40.8361                 1.1240

                     46                     47                     48
                      A                      A                      A
 Frequencies --   1512.1894              1514.7724              1528.2986
 Red. masses --      1.1495                 1.0479                 1.0745
 Frc consts  --      1.5487                 1.4167                 1.4786
 IR Inten    --     28.8853                 4.8650                 2.4234

                     49                     50                     51
                      A                      A                      A
 Frequencies --   1533.1857              1535.7649              1555.9519
 Red. masses --      1.0670                 1.1053                 1.0904
 Frc consts  --      1.4777                 1.5360                 1.5554
 IR Inten    --     12.0363                20.8366                 0.1766

                     52                     53                     54
                      A                      A                      A
 Frequencies --   1795.8190              2240.1851              2975.9696
 Red. masses --      8.1900                 5.9341                 1.0551
 Frc consts  --     15.5617                17.5457                 5.5056
 IR Inten    --    345.6033                 0.3579                39.7399

                     55                     56                     57
                      A                      A                      A
 Frequencies --   2996.1955              3011.1889              3039.8294
 Red. masses --      1.0398                 1.1031                 1.1052
 Frc consts  --      5.4999                 5.8931                 6.0174
 IR Inten    --     93.3111                61.6430                57.7346

                     58                     59                     60
                      A                      A                      A
 Frequencies --   3049.8085              3073.4364              3085.5578
 Red. masses --      1.0700                 1.0617                 1.0607
 Frc consts  --      5.8638                 5.9086                 5.9498
 IR Inten    --     27.2982                11.8436                16.2496

                     61                     62                     63
                      A                      A                      A
 Frequencies --   3110.2445              3127.3836              3139.1518
 Red. masses --      1.1040                 1.0929                 1.0971
 Frc consts  --      6.2924                 6.2981                 6.3700
 IR Inten    --      4.3200                 1.3189                31.5525

                     64                     65                     66
                      A                      A                      A
 Frequencies --   3139.8150              3494.9494              3581.5033
 Red. masses --      1.1034                 1.1608                 1.0756
 Frc consts  --      6.4090                 8.3540                 8.1288
 IR Inten    --     17.8952                53.6337                17.8201

 - Thermochemistry -
 -------------------
 Temperature   298.150 Kelvin.  Pressure   1.00000 Atm.
 Atom     1 has atomic number  6 and mass  12.00000

 Molecular mass:   155.09463 amu.
 Principal axes and moments of inertia in atomic units:
                           1         2         3
     Eigenvalues --  1479.667922406.263953292.20660
           X            0.99948   0.03231   0.00036
           Y           -0.03231   0.99947   0.00454
           Z           -0.00022  -0.00455   0.99999
 This molecule is an asymmetric top.
 Rotational symmetry number  1.
 Warning -- assumption of classical behavior for rotation
           may cause significant error
 Rotational temperatures (Kelvin)      0.05854     0.03600     0.02631
 Rotational constants (GHZ):           1.21969     0.75002     0.54819
 Zero-point vibrational energy     535600.6 (Joules/Mol)
                                  128.01162 (Kcal/Mol)
 Warning -- explicit consideration of  18 degrees of freedom as
           vibrations may cause significant error
 Vibrational temperatures:     41.48    85.08    95.36   103.35   125.01
          (Kelvin)            215.68   269.41   333.49   335.96   402.72
                              448.02   466.64   497.26   683.88   694.95
                              751.49   853.47   871.29   911.01   932.54
                             1046.02  1122.60  1224.70  1313.74  1349.20
                             1367.03  1424.32  1524.32  1548.28  1605.36
                             1627.54  1678.17  1713.19  1722.58  1793.52
                             1820.78  1846.55  1904.10  1912.78  1973.56
                             2029.53  2031.88  2069.20  2152.27  2163.35
                             2175.70  2179.42  2198.88  2205.91  2209.62
                             2238.67  2583.78  3223.13  4281.76  4310.86
                             4332.43  4373.64  4387.99  4421.99  4439.43
                             4474.95  4499.61  4516.54  4517.49  5028.45
                             5152.98

 Zero-point correction=                           0.203999 (Hartree/Particle)
 Thermal correction to Energy=                    0.216735
 Thermal correction to Enthalpy=                  0.217679
 Thermal correction to Gibbs Free Energy=         0.163568
 Sum of electronic and zero-point Energies=           -517.627649
 Sum of electronic and thermal Energies=              -517.614913
 Sum of electronic and thermal Enthalpies=            -517.613969
 Sum of electronic and thermal Free Energies=         -517.668080

                     E (Thermal)             CV                S
                      KCal/Mol        Cal/Mol-Kelvin    Cal/Mol-Kelvin
 Total                  136.003             44.827            113.887
 Electronic               0.000              0.000              0.000
 Translational            0.889              2.981             41.026
 Rotational               0.889              2.981             30.839
 Vibrational            134.226             38.866             42.021
 Vibration     1          0.593              1.984              5.909
 Vibration     2          0.596              1.974              4.486
 Vibration     3          0.598              1.970              4.261
 Vibration     4          0.598              1.967              4.103
 Vibration     5          0.601              1.958              3.729
 Vibration     6          0.618              1.903              2.673
 Vibration     7          0.632              1.857              2.255
 Vibration     8          0.653              1.792              1.865
 Vibration     9          0.654              1.790              1.852
 Vibration    10          0.680              1.711              1.534
 Vibration    11          0.700              1.652              1.355
 Vibration    12          0.709              1.627              1.288
 Vibration    13          0.724              1.584              1.186
 Vibration    14          0.832              1.305              0.723
 Vibration    15          0.839              1.288              0.702
 Vibration    16          0.877              1.201              0.605
 Vibration    17          0.951              1.046              0.462
 Vibration    18          0.964              1.020              0.440

                           ! Non-Optimized Parameters !
 Normal termination of Gaussian 16 at Tue Dec  8 20:03:22 2020.

 ----------------------------------------------------------------------
 # B3LYP/6-311++G(d,p) empiricaldispersion=gd3bj scf=xqc pop=npa geom=c
 heck
 ----------------------------------------------------------------------

 --------------------------------------
 CID_57661711_JID_1368_Energie_neutraal
 --------------------------------------
 Structure from the checkpoint file:  "JID_1368.chk"
 Charge =  0 Multiplicity = 1

 SCF Done:  E(RB3LYP) =  -517.993192740     A.U. after   14 cycles
 Normal termination of Gaussian 16 at Tue Dec  8 20:05:22 2020.

 ----------------------------------------------------------------------
 # B3LYP/6-311++G(d,p) empiricaldispersion=gd3bj scf=xqc pop=npa geom=c
 heck
 ----------------------------------------------------------------------

 ------------------------------------
 CID_57661711_JID_1368_Energie_kation
 ------------------------------------
 Structure from the checkpoint file:  "JID_1368.chk"
 Charge =  1 Multiplicity = 2

 SCF Done:  E(UB3LYP) =  -517.663998346     A.U. after   33 cycles
 SCF Done:  E(UB3LYP) =  -517.663998346     a.u. after    1 cycles
 Normal termination of Gaussian 16 at Tue Dec  8 20:12:00 2020.
 Gaussian 16:  ES64L-G16RevA.03 25-Dec-2016

 ----------------------------------------------------------------------
 # B3LYP/6-311++G(d,p) empiricaldispersion=gd3bj scf=xqc pop=npa geom=c
 heck
 ----------------------------------------------------------------------

 -----------------------------------
 CID_57661711_JID_1368_Energie_anion
 -----------------------------------
 Structure from the checkpoint file:  "JID_1368.chk"
 Charge = -1 Multiplicity = 2

                         Standard orientation:
 ---------------------------------------------------------------------
 Center     Atomic      Atomic             Coordinates (Angstroms)
 Number     Number       Type             X           Y           Z
 ---------------------------------------------------------------------
      1          6           0        3.543316   -0.350158   -0.678896
      2          8           0        2.191773   -0.157981   -0.322479
      3          6           0        2.030349    0.702533    0.795278
      4          6           0        0.539096    0.860273    1.050266
      5          6           0       -0.177582    1.532420   -0.141615
      6          6           0       -1.658878    1.197109   -0.189711
      7          8           0       -2.521564    1.964448    0.214110
      8          7           0       -2.007318   -0.021309   -0.736847
      9          6           0       -1.135010   -1.165589   -0.983723
     10          6           0       -1.139991   -2.144969    0.112064
     11          6           0       -1.169526   -2.940719    1.019396
     12          1           0        4.116542   -0.811328    0.140742
     13          1           0        4.030030    0.600172   -0.950077
     14          1           0        3.559083   -1.018429   -1.543473
     15          1           0        2.530855    0.272698    1.678276
     16          1           0        2.500743    1.679498    0.589306
     17          1           0        0.124698   -0.134457    1.246204
     18          1           0        0.381800    1.450861    1.959346
     19          1           0       -0.107412    2.619777   -0.062181
     20          1           0        0.313599    1.231608   -1.071974
     21          1           0       -2.993239   -0.227870   -0.621946
     22          1           0       -1.452690   -1.655276   -1.913102
     23          1           0       -0.113037   -0.814446   -1.147979
     24          1           0       -1.192063   -3.640795    1.823381
 ---------------------------------------------------------------------

 SCF Done:  E(UB3LYP) =  -517.979630001     A.U. after   32 cycles

 The electronic state is 2-A.
 Alpha  occ. eigenvalues --  -19.03143 -18.99693 -14.24649 -10.18157 -10.14131
 Alpha  occ. eigenvalues --  -10.12211 -10.11058 -10.08646 -10.08271 -10.08191
 Alpha  occ. eigenvalues --  -10.07671  -0.94765  -0.94385  -0.83533  -0.70615
 Alpha  occ. eigenvalues --   -0.68368  -0.62944  -0.61444  -0.56951  -0.50850
 Alpha  occ. eigenvalues --   -0.48604  -0.45466  -0.41454  -0.41124  -0.39803
 Alpha  occ. eigenvalues --   -0.38783  -0.37465  -0.35810  -0.33784  -0.33350
 Alpha  occ. eigenvalues --   -0.32634  -0.31471  -0.29616  -0.26764  -0.26273
 Alpha  occ. eigenvalues --   -0.25276  -0.22934  -0.19934  -0.18772  -0.17062
 Alpha  occ. eigenvalues --   -0.16838  -0.16275   0.04320
 Alpha virt. eigenvalues --    0.06312   0.06877   0.07704   0.08710   0.09540
 Alpha virt. eigenvalues --    0.09902   0.10075   0.10614   0.10973   0.11627
 Alpha virt. eigenvalues --    0.11952   0.12298   0.13359   0.13737   0.14691

  Beta  occ. eigenvalues --  -19.03130 -18.99692 -14.24638 -10.18156 -10.14103
  Beta  occ. eigenvalues --  -10.12184 -10.11007 -10.08646 -10.08261 -10.08182
  Beta  occ. eigenvalues --  -10.07643  -0.94760  -0.94365  -0.83512  -0.70593
  Beta  occ. eigenvalues --   -0.68334  -0.62903  -0.61398  -0.56868  -0.50779
  Beta  occ. eigenvalues --   -0.48573  -0.45414  -0.41412  -0.41075  -0.39757
  Beta  occ. eigenvalues --   -0.38744  -0.37428  -0.35772  -0.33755  -0.33327
  Beta  occ. eigenvalues --   -0.32606  -0.31446  -0.29593  -0.26730  -0.26238
  Beta  occ. eigenvalues --   -0.25257  -0.22856  -0.19906  -0.18745  -0.17046
  Beta  occ. eigenvalues --   -0.16809  -0.16265
  Beta virt. eigenvalues --    0.06670   0.07411   0.07808   0.08222   0.09291
  Beta virt. eigenvalues --    0.09850   0.10163   0.10519   0.10994   0.11231
  Beta virt. eigenvalues --    0.11828   0.12120   0.12777   0.13511   0.14063

 Mulliken charges and spin densities:
               1          2
     1  C    1.066433  -1.328541
     2  O   -0.258915   0.116371
     3  C    0.641425  -0.979755
     4  C   -0.836727   0.639310
     5  C    0.412586  -0.686994
     6  C   -0.150812   0.056613
     7  O   -0.364626   0.017004
     8  N   -0.092278   0.029873
     9  C    1.352194  -2.041581
    10  C    5.516260  -4.122934
    11  C   -5.783237   4.523591
    12  H   -0.369000   0.504305
    13  H   -0.420496   0.557104
    14  H   -0.461519   0.603910
    15  H   -0.242651   0.385262
    16  H   -0.111577   0.249437
    17  H    0.387290  -0.216825
    18  H   -0.070150   0.247483
    19  H    0.115176   0.075924
    20  H   -0.050965   0.230372
    21  H    0.128236   0.155132
    22  H   -0.745587   0.974936
    23  H    0.495279  -0.303631
    24  H   -1.156339   1.313636
 Sum of Mulliken charges =  -1.00000   1.00000

 Dipole moment (field-independent basis, Debye):
    X=             -2.6385    Y=              3.1471    Z=              0.5301  Tot=              4.1409
 Quadrupole moment (field-independent basis, Debye-Ang):
   XX=           -136.3348   YY=           -120.7268   ZZ=           -101.8242
   XY=              2.2791   XZ=              2.6637   YZ=              0.9667

 Summary of Natural Population Analysis:

                                       Natural Population
                Natural  -----------------------------------------------
    Atom  No    Charge         Core      Valence    Rydberg      Total
 -----------------------------------------------------------------------
      C    1   -0.09542      0.99962     2.08658    0.00921     3.09542
      O    2   -0.30405      0.99988     3.29394    0.01023     4.30405
      C    3   -0.00479      0.99958     1.99337    0.01184     3.00479
      C    4   -0.20093      0.99961     2.19221    0.00911     3.20093
      C    5   -0.23790      0.99958     2.22998    0.00834     3.23790
      C    6    0.35034      0.99966     1.62787    0.02212     2.64966
      O    7   -0.32273      0.99988     3.31710    0.00576     4.32273
      N    8   -0.31571      0.99967     2.80583    0.01021     3.81571
      C    9   -0.13713      0.99953     2.12447    0.01313     3.13713
      C   10   -0.01235      0.99935     2.00450    0.00849     3.01235
      C   11   -0.10784      0.99926     2.10481    0.00377     3.10784
      H   12    0.08042      0.00000     0.41724    0.00234     0.41958
      H   13    0.07916      0.00000     0.41841    0.00243     0.42084
      H   14    0.09237      0.00000     0.40602    0.00162     0.40763
      H   15    0.08429      0.00000     0.41412    0.00160     0.41571
      H   16    0.07806      0.00000     0.42021    0.00172     0.42194
      H   17    0.10666      0.00000     0.39105    0.00229     0.39334
      H   18    0.10192      0.00000     0.39717    0.00091     0.39808
      H   19    0.11037      0.00000     0.38862    0.00101     0.38963
      H   20    0.11081      0.00000     0.38723    0.00197     0.38919
      H   21    0.19320      0.00000     0.30440    0.00240     0.30680
      H   22    0.11267      0.00000     0.38494    0.00239     0.38733
      H   23    0.12550      0.00000     0.37154    0.00296     0.37450
      H   24    0.11308      0.00000     0.38483    0.00209     0.38692
 =======================================================================
   * Total *    0.00000     10.99563    30.86646    0.13791    42.00000

 Normal termination of Gaussian 16 at Tue Dec  8 20:18:43 2020.
