 Gaussian 16, Revision A.03,

 -----------------------------------------------------------
 # opt freq B3LYP/6-31G(d) empiricaldispersion=gd3bj scf=xqc
 -----------------------------------------------------------

 ------------------------------
 CID_22716619_JID_2321_neutraal
 ------------------------------
 Symbolic Z-matrix:
 Charge =  0 Multiplicity = 1

 SCF Done:  E(RB3LYP) =  -568.328336414     A.U. after   15 cycles
 SCF Done:  E(RB3LYP) =  -568.335383706     A.U. after   14 cycles
 SCF Done:  E(RB3LYP) =  -568.336100296     A.U. after   13 cycles
 SCF Done:  E(RB3LYP) =  -568.336158343     A.U. after   11 cycles
 SCF Done:  E(RB3LYP) =  -568.336151085     A.U. after   10 cycles
 SCF Done:  E(RB3LYP) =  -568.336086670     A.U. after   12 cycles
 SCF Done:  E(RB3LYP) =  -568.336157340     A.U. after   11 cycles
 SCF Done:  E(RB3LYP) =  -568.336160536     A.U. after   10 cycles
 Optimization completed.
    -- Stationary point found.
 Normal termination of Gaussian 16 at Wed Dec  9 17:02:39 2020.

 --------------------------------------------------------------------
 #N Geom=AllCheck Guess=TCheck SCRF=Check GenChk RB3LYP/6-31G(d) Freq
 --------------------------------------------------------------------

 Structure from the checkpoint file:  "JID_2321.chk"
 ------------------------------
 CID_22716619_JID_2321_neutraal
 ------------------------------
 Charge =  0 Multiplicity = 1

 SCF Done:  E(RB3LYP) =  -568.336160536     A.U. after    1 cycles

  Exact polarizability: 166.925 -10.644 119.832   0.001   0.002  34.818
 Approx polarizability: 326.544 -35.950 227.078   0.005   0.002  55.147

                      1                      2                      3
                      A                      A                      A
 Frequencies --     79.9953               125.9561               183.9516
 Red. masses --     12.0782                 5.2128                 8.0304
 Frc consts  --      0.0455                 0.0487                 0.1601
 IR Inten    --      0.2540                 0.0368                 1.8582

                      4                      5                      6
                      A                      A                      A
 Frequencies --    234.4636               266.5445               370.4697
 Red. masses --      3.9698                 5.4107                 7.9539
 Frc consts  --      0.1286                 0.2265                 0.6432
 IR Inten    --      6.2508                 1.6915                 3.2400

                      7                      8                      9
                      A                      A                      A
 Frequencies --    421.8990               428.0752               522.1434
 Red. masses --      7.6281                 3.0131                 5.3163
 Frc consts  --      0.8000                 0.3253                 0.8540
 IR Inten    --      0.2270                12.3326                 3.3250

                     10                     11                     12
                      A                      A                      A
 Frequencies --    561.8712               604.6979               615.4736
 Red. masses --      3.9581                 4.1132                 6.7400
 Frc consts  --      0.7362                 0.8862                 1.5043
 IR Inten    --     14.2833                 1.2638                 4.4975

                     13                     14                     15
                      A                      A                      A
 Frequencies --    637.9465               641.3448               727.3969
 Red. masses --      1.2735                 7.5733                 1.6515
 Frc consts  --      0.3054                 1.8353                 0.5148
 IR Inten    --     86.0210                 0.9264                 0.6195

                     16                     17                     18
                      A                      A                      A
 Frequencies --    757.1901               768.2536               785.8162
 Red. masses --      4.9541                 1.6790                 5.9225
 Frc consts  --      1.6735                 0.5839                 2.1547
 IR Inten    --     41.9109                23.3329                 2.6205

                     19                     20                     21
                      A                      A                      A
 Frequencies --    810.9358               823.0454               884.1490
 Red. masses --      2.1081                 9.4748                 1.3991
 Frc consts  --      0.8168                 3.7815                 0.6444
 IR Inten    --      2.6766                32.0088                15.2283

                     22                     23                     24
                      A                      A                      A
 Frequencies --    897.6135               935.3824               958.7807
 Red. masses --      4.3386                 1.3507                 1.2428
 Frc consts  --      2.0596                 0.6963                 0.6731
 IR Inten    --     12.6472                 0.7974                 2.5018

                     25                     26                     27
                      A                      A                      A
 Frequencies --   1023.9667              1057.3647              1099.6218
 Red. masses --      2.3473                 2.8080                 1.5580
 Frc consts  --      1.4501                 1.8497                 1.1099
 IR Inten    --     13.7698                26.7364                16.0569

                     28                     29                     30
                      A                      A                      A
 Frequencies --   1160.1178              1211.8040              1234.2139
 Red. masses --      1.7057                 1.8941                 1.9280
 Frc consts  --      1.3526                 1.6388                 1.7304
 IR Inten    --      6.5295                11.6571                46.8721

                     31                     32                     33
                      A                      A                      A
 Frequencies --   1293.3366              1328.5158              1385.8733
 Red. masses --      1.2613                 4.7251                 3.2152
 Frc consts  --      1.2431                 4.9136                 3.6383
 IR Inten    --      9.3576                18.3183               385.2902

                     34                     35                     36
                      A                      A                      A
 Frequencies --   1416.7398              1421.8861              1461.2694
 Red. masses --      3.5853                 3.3264                 3.5863
 Frc consts  --      4.2399                 3.9623                 4.5119
 IR Inten    --     53.6701               243.2537               103.0017

                     37                     38                     39
                      A                      A                      A
 Frequencies --   1501.1659              1532.3354              1572.7898
 Red. masses --      3.7018                 4.4626                 5.7651
 Frc consts  --      4.9150                 6.1737                 8.4023
 IR Inten    --      6.5767                18.5453               125.9757

                     40                     41                     42
                      A                      A                      A
 Frequencies --   1602.7144              1639.8471              1666.0417
 Red. masses --      5.1185                 3.7084                 5.1337
 Frc consts  --      7.7465                 5.8754                 8.3956
 IR Inten    --    105.9695                61.2947                57.0553

                     43                     44                     45
                      A                      A                      A
 Frequencies --   3235.0034              3248.5515              3252.5108
 Red. masses --      1.0932                 1.0916                 1.0901
 Frc consts  --      6.7407                 6.7875                 6.7946
 IR Inten    --      3.5995                 4.2918                 0.6160

                     46                     47                     48
                      A                      A                      A
 Frequencies --   3268.4253              3276.0406              3626.3087
 Red. masses --      1.0959                 1.0990                 1.0786
 Frc consts  --      6.8974                 6.9493                 8.3571
 IR Inten    --      2.6882                 2.0806               116.2950

 - Thermochemistry -
 -------------------
 Temperature   298.150 Kelvin.  Pressure   1.00000 Atm.
 Atom     1 has atomic number  6 and mass  12.00000

 Molecular mass:   162.04293 amu.
 Principal axes and moments of inertia in atomic units:
                           1         2         3
     Eigenvalues --   903.727662378.297243282.02474
           X            0.99987  -0.01603   0.00000
           Y            0.01603   0.99987   0.00001
           Z           -0.00000  -0.00001   1.00000
 This molecule is an asymmetric top.
 Rotational symmetry number  1.
 Warning -- assumption of classical behavior for rotation
           may cause significant error
 Rotational temperatures (Kelvin)      0.09584     0.03642     0.02639
 Rotational constants (GHZ):           1.99700     0.75884     0.54989
 Zero-point vibrational energy     350265.6 (Joules/Mol)
                                   83.71549 (Kcal/Mol)
 Warning -- explicit consideration of  12 degrees of freedom as
           vibrations may cause significant error
 Vibrational temperatures:    115.10   181.22   264.67   337.34   383.50
          (Kelvin)            533.02   607.02   615.90   751.25   808.41
                              870.03   885.53   917.86   922.75  1046.56
                             1089.43  1105.35  1130.61  1166.76  1184.18
                             1272.09  1291.47  1345.81  1379.47  1473.26
                             1521.31  1582.11  1669.15  1743.52  1775.76
                             1860.82  1911.44  1993.96  2038.37  2045.78
                             2102.44  2159.84  2204.69  2262.89  2305.95
                             2359.37  2397.06  4654.45  4673.94  4679.64
                             4702.53  4713.49  5217.45

 Zero-point correction=                           0.133409 (Hartree/Particle)
 Thermal correction to Energy=                    0.142072
 Thermal correction to Enthalpy=                  0.143016
 Thermal correction to Gibbs Free Energy=         0.099242
 Sum of electronic and zero-point Energies=           -568.202751
 Sum of electronic and thermal Energies=              -568.194089
 Sum of electronic and thermal Enthalpies=            -568.193145
 Sum of electronic and thermal Free Energies=         -568.236919

                     E (Thermal)             CV                S
                      KCal/Mol        Cal/Mol-Kelvin    Cal/Mol-Kelvin
 Total                   89.151             34.448             92.130
 Electronic               0.000              0.000              0.000
 Translational            0.889              2.981             41.157
 Rotational               0.889              2.981             30.335
 Vibrational             87.374             28.486             20.638
 Vibration     1          0.600              1.963              3.891
 Vibration     2          0.611              1.927              3.007
 Vibration     3          0.631              1.862              2.288
 Vibration     4          0.654              1.788              1.845
 Vibration     5          0.672              1.734              1.619
 Vibration     6          0.742              1.533              1.078
 Vibration     7          0.784              1.423              0.886
 Vibration     8          0.790              1.409              0.865
 Vibration     9          0.877              1.201              0.605
 Vibration    10          0.918              1.114              0.520
 Vibration    11          0.963              1.022              0.442
 Vibration    12          0.975              0.999              0.424

 Optimization completed.
    -- Stationary point found.
 Normal termination of Gaussian 16 at Wed Dec  9 17:06:23 2020.

 ----------------------------------------------------------------------
 # B3LYP/6-311++G(d,p) empiricaldispersion=gd3bj scf=xqc pop=npa geom=c
 heck
 ----------------------------------------------------------------------

 --------------------------------------
 CID_22716619_JID_2321_Energie_neutraal
 --------------------------------------
 Structure from the checkpoint file:  "JID_2321.chk"
 Charge =  0 Multiplicity = 1

 SCF Done:  E(RB3LYP) =  -568.495774605     A.U. after   16 cycles
 Normal termination of Gaussian 16 at Wed Dec  9 17:08:56 2020.

 ----------------------------------------------------------------------
 # B3LYP/6-311++G(d,p) empiricaldispersion=gd3bj scf=xqc pop=npa geom=c
 heck
 ----------------------------------------------------------------------

 ------------------------------------
 CID_22716619_JID_2321_Energie_kation
 ------------------------------------
 Structure from the checkpoint file:  "JID_2321.chk"
 Charge =  1 Multiplicity = 2

 SCF Done:  E(UB3LYP) =  -568.207904197     A.U. after   24 cycles
 Normal termination of Gaussian 16 at Wed Dec  9 17:11:43 2020.
 Gaussian 16:  ES64L-G16RevA.03 25-Dec-2016

 ----------------------------------------------------------------------
 # B3LYP/6-311++G(d,p) empiricaldispersion=gd3bj scf=xqc pop=npa geom=c
 heck
 ----------------------------------------------------------------------

 -----------------------------------
 CID_22716619_JID_2321_Energie_anion
 -----------------------------------
 Structure from the checkpoint file:  "JID_2321.chk"
 Charge = -1 Multiplicity = 2

                         Standard orientation:
 ---------------------------------------------------------------------
 Center     Atomic      Atomic             Coordinates (Angstroms)
 Number     Number       Type             X           Y           Z
 ---------------------------------------------------------------------
      1          6           0        0.261929    2.172786    0.000054
      2          6           0       -1.046937    1.738245   -0.000204
      3          6           0       -1.071699    0.307168   -0.000411
      4          6           0        0.240720   -0.177806   -0.000231
      5          6           0        1.099864    1.010925    0.000049
      6          6           0        2.463000    0.840414    0.000254
      7          7           0        2.978350   -0.417883    0.000183
      8          6           0        2.201110   -1.551446   -0.000072
      9          6           0        0.832687   -1.456370   -0.000288
     10          7           0       -2.249302   -0.478115   -0.000709
     11          8           0       -3.340892    0.107821    0.000549
     12          8           0       -2.130431   -1.716977    0.000525
     13          1           0        0.603946    3.199336    0.000224
     14          1           0       -1.938566    2.349916   -0.000273
     15          1           0        3.179016    1.654133    0.000466
     16          1           0        3.983504   -0.525308    0.000387
     17          1           0        2.738425   -2.490555   -0.000111
     18          1           0        0.216878   -2.345776   -0.000499
 ---------------------------------------------------------------------

 SCF Done:  E(UB3LYP) =  -568.514271111     A.U. after   33 cycles
 SCF Done:  E(UB3LYP) =  -568.514271111     a.u. after    1 cycles

 The electronic state is 2-A.
 Alpha  occ. eigenvalues --  -18.93724 -18.93633 -14.32250 -14.23160 -10.07461
 Alpha  occ. eigenvalues --  -10.07006 -10.03572 -10.03409 -10.03218 -10.02745
 Alpha  occ. eigenvalues --  -10.01964 -10.01271  -1.01236  -0.84931  -0.83911
 Alpha  occ. eigenvalues --   -0.72592  -0.64739  -0.62395  -0.59161  -0.51905
 Alpha  occ. eigenvalues --   -0.49478  -0.46090  -0.42881  -0.38434  -0.37332
 Alpha  occ. eigenvalues --   -0.35143  -0.33581  -0.32198  -0.30867  -0.30587
 Alpha  occ. eigenvalues --   -0.29435  -0.27961  -0.24959  -0.23336  -0.21438
 Alpha  occ. eigenvalues --   -0.20434  -0.15579  -0.12257  -0.11367  -0.09742
 Alpha  occ. eigenvalues --   -0.09232  -0.05798   0.04432
 Alpha virt. eigenvalues --    0.06954   0.09208   0.09432   0.10453   0.12002
 Alpha virt. eigenvalues --    0.13276   0.13961   0.14084   0.14794   0.16120
 Alpha virt. eigenvalues --    0.17954   0.18113   0.18414   0.19525   0.19752

  Beta  occ. eigenvalues --  -18.93451 -18.93249 -14.31811 -14.22714 -10.07124
  Beta  occ. eigenvalues --  -10.06774 -10.03698 -10.03516 -10.03294 -10.02780
  Beta  occ. eigenvalues --  -10.01978 -10.00847  -1.00513  -0.84149  -0.83289
  Beta  occ. eigenvalues --   -0.72400  -0.64339  -0.62005  -0.58738  -0.51084
  Beta  occ. eigenvalues --   -0.49410  -0.45965  -0.42514  -0.38272  -0.36902
  Beta  occ. eigenvalues --   -0.34784  -0.31952  -0.31577  -0.30722  -0.30134
  Beta  occ. eigenvalues --   -0.27903  -0.27652  -0.24917  -0.23233  -0.20640
  Beta  occ. eigenvalues --   -0.20309  -0.14364  -0.11066  -0.10121  -0.08907
  Beta  occ. eigenvalues --   -0.08685  -0.04801
  Beta virt. eigenvalues --    0.06901   0.09175   0.10413   0.10678   0.11030
  Beta virt. eigenvalues --    0.11984   0.13244   0.14264   0.14752   0.14965
  Beta virt. eigenvalues --    0.16104   0.17961   0.18094   0.18896   0.19531

 Mulliken charges and spin densities:
               1          2
     1  C   -2.490765   0.011621
     2  C    1.505517  -0.025866
     3  C   -1.707516  -0.069820
     4  C    1.313150   0.258892
     5  C    0.805385  -0.080931
     6  C    0.358790   0.296095
     7  N   -0.058140   0.116210
     8  C   -0.772696   0.221820
     9  C   -0.280139  -0.076139
    10  N   -0.331702   0.144262
    11  O   -0.165482   0.139261
    12  O   -0.154352   0.107704
    13  H    0.067084   0.001914
    14  H    0.192135   0.001710
    15  H    0.130291  -0.025635
    16  H    0.266219  -0.008876
    17  H    0.104985  -0.016727
    18  H    0.217237   0.004504
 Sum of Mulliken charges =  -1.00000   1.00000

 Dipole moment (field-independent basis, Debye):
    X=              9.2149    Y=              1.5938    Z=             -0.0024  Tot=              9.3517
 Quadrupole moment (field-independent basis, Debye-Ang):
   XX=            -96.4977   YY=            -81.0218   ZZ=            -77.6123
   XY=             -7.4897   XZ=              0.0082   YZ=              0.0036

 Summary of Natural Population Analysis:

                                       Natural Population
                Natural  -----------------------------------------------
    Atom  No    Charge         Core      Valence    Rydberg      Total
 -----------------------------------------------------------------------
      C    1   -0.15945      0.99954     2.14933    0.01058     3.15945
      C    2   -0.10541      0.99956     2.09557    0.01028     3.10541
      C    3   -0.01210      0.99937     2.00020    0.01254     3.01210
      C    4    0.04953      0.99947     1.94130    0.00970     2.95047
      C    5   -0.07222      0.99953     2.06380    0.00889     3.07222
      C    6    0.09079      0.99953     1.89838    0.01129     2.90921
      N    7   -0.20139      0.99968     2.69378    0.00793     3.70139
      C    8    0.03730      0.99960     1.95094    0.01216     2.96270
      C    9   -0.13446      0.99954     2.12556    0.00936     3.13446
      N   10    0.28386      0.99967     2.19022    0.02626     3.21614
      O   11   -0.21205      0.99990     3.20406    0.00808     4.21205
      O   12   -0.23105      0.99990     3.22280    0.00835     4.23105
      H   13    0.09204      0.00000     0.40684    0.00111     0.40796
      H   14    0.10410      0.00000     0.39461    0.00129     0.39590
      H   15    0.08441      0.00000     0.41449    0.00110     0.41559
      H   16    0.18205      0.00000     0.31602    0.00192     0.31795
      H   17    0.08586      0.00000     0.41318    0.00096     0.41414
      H   18    0.11816      0.00000     0.38053    0.00130     0.38184
 =======================================================================
   * Total *    0.00000     11.99529    29.86162    0.14309    42.00000

 Normal termination of Gaussian 16 at Wed Dec  9 17:15:15 2020.
