 Gaussian 16, Revision A.03,

 -----------------------------------------------------------
 # opt freq B3LYP/6-31G(d) empiricaldispersion=gd3bj scf=xqc
 -----------------------------------------------------------

 ------------------------------
 CID_82177219_JID_6943_neutraal
 ------------------------------
 Symbolic Z-matrix:
 Charge =  0 Multiplicity = 1

 SCF Done:  E(RB3LYP) =  -1091.75643753     A.U. after   14 cycles
 SCF Done:  E(RB3LYP) =  -1091.76392260     A.U. after   12 cycles
 SCF Done:  E(RB3LYP) =  -1091.76362627     A.U. after   12 cycles
 SCF Done:  E(RB3LYP) =  -1091.76431282     A.U. after   12 cycles
 SCF Done:  E(RB3LYP) =  -1091.76535576     A.U. after   12 cycles
 SCF Done:  E(RB3LYP) =  -1091.76562038     A.U. after   12 cycles
 SCF Done:  E(RB3LYP) =  -1091.76566508     A.U. after   12 cycles
 SCF Done:  E(RB3LYP) =  -1091.76641896     A.U. after   11 cycles
 SCF Done:  E(RB3LYP) =  -1091.76673214     A.U. after   12 cycles
 SCF Done:  E(RB3LYP) =  -1091.76700460     A.U. after   11 cycles
 SCF Done:  E(RB3LYP) =  -1091.76739794     A.U. after   11 cycles
 SCF Done:  E(RB3LYP) =  -1091.76742154     A.U. after   11 cycles
 SCF Done:  E(RB3LYP) =  -1091.76743348     A.U. after    9 cycles
 SCF Done:  E(RB3LYP) =  -1091.76744537     A.U. after    9 cycles
 SCF Done:  E(RB3LYP) =  -1091.76744841     A.U. after    9 cycles
 SCF Done:  E(RB3LYP) =  -1091.76744857     A.U. after    7 cycles
 Optimization completed.
    -- Stationary point found.
 Normal termination of Gaussian 16 at Fri Dec 11 00:29:44 2020.

 --------------------------------------------------------------------
 #N Geom=AllCheck Guess=TCheck SCRF=Check GenChk RB3LYP/6-31G(d) Freq
 --------------------------------------------------------------------

 Structure from the checkpoint file:  "JID_6943.chk"
 ------------------------------
 CID_82177219_JID_6943_neutraal
 ------------------------------
 Charge =  0 Multiplicity = 1

 SCF Done:  E(RB3LYP) =  -1091.76744857     A.U. after    1 cycles

  Exact polarizability: 156.081   0.771 151.508   1.645   2.577 133.897
 Approx polarizability: 207.204  -4.706 215.646   2.956   7.837 208.795

                      1                      2                      3
                      A                      A                      A
 Frequencies --     41.2167                54.3054                62.8136
 Red. masses --      2.7201                 3.1710                 3.9943
 Frc consts  --      0.0027                 0.0055                 0.0093
 IR Inten    --      1.4150                 0.3569                 0.9667

                      4                      5                      6
                      A                      A                      A
 Frequencies --     81.6419                83.2865               113.2115
 Red. masses --      3.5489                 3.0027                 2.5488
 Frc consts  --      0.0139                 0.0123                 0.0192
 IR Inten    --      0.5862                 0.8041                 1.8871

                      7                      8                      9
                      A                      A                      A
 Frequencies --    115.6535               147.5679               187.8318
 Red. masses --      2.8894                 2.0280                 2.3867
 Frc consts  --      0.0228                 0.0260                 0.0496
 IR Inten    --      0.6580                 0.4287                 0.7463

                     10                     11                     12
                      A                      A                      A
 Frequencies --    194.2213               211.0634               222.4577
 Red. masses --      3.1546                 1.8729                 2.6439
 Frc consts  --      0.0701                 0.0492                 0.0771
 IR Inten    --      1.6089                 1.1108                 0.7590

                     13                     14                     15
                      A                      A                      A
 Frequencies --    234.0243               265.4285               288.1837
 Red. masses --      1.7364                 2.4097                 1.4023
 Frc consts  --      0.0560                 0.1000                 0.0686
 IR Inten    --      1.1333                 4.7586                 0.5268

                     16                     17                     18
                      A                      A                      A
 Frequencies --    291.2071               300.1427               304.8592
 Red. masses --      2.7589                 1.4091                 2.4733
 Frc consts  --      0.1378                 0.0748                 0.1354
 IR Inten    --      1.4078                 1.0725                 0.3437

                     19                     20                     21
                      A                      A                      A
 Frequencies --    310.1011               331.0963               387.1933
 Red. masses --      2.8305                 3.7668                 2.5431
 Frc consts  --      0.1604                 0.2433                 0.2246
 IR Inten    --      2.6704                 0.8322                 2.1271

                     22                     23                     24
                      A                      A                      A
 Frequencies --    425.2507               434.7360               469.5247
 Red. masses --      2.9385                 2.7211                 4.2208
 Frc consts  --      0.3131                 0.3030                 0.5482
 IR Inten    --      3.9525                 4.6489                12.2444

                     25                     26                     27
                      A                      A                      A
 Frequencies --    476.2667               526.5066               546.7909
 Red. masses --      3.8507                 3.2077                 2.8101
 Frc consts  --      0.5146                 0.5239                 0.4950
 IR Inten    --     16.9287                21.8486                20.4270

                     28                     29                     30
                      A                      A                      A
 Frequencies --    602.7678               655.2617               679.9822
 Red. masses --      3.1537                 2.7242                 3.9812
 Frc consts  --      0.6751                 0.6892                 1.0846
 IR Inten    --     38.2681                 2.0017                62.2061

                     31                     32                     33
                      A                      A                      A
 Frequencies --    731.8310               765.2637               820.2134
 Red. masses --      2.1883                 1.6613                 2.0933
 Frc consts  --      0.6905                 0.5732                 0.8297
 IR Inten    --     19.0322                15.3589                 3.4803

                     34                     35                     36
                      A                      A                      A
 Frequencies --    824.6406               858.6736               874.4558
 Red. masses --      1.6536                 1.6041                 2.6751
 Frc consts  --      0.6625                 0.6968                 1.2052
 IR Inten    --     23.5898               101.2398                77.3727

                     37                     38                     39
                      A                      A                      A
 Frequencies --    888.2613               897.9029               936.0995
 Red. masses --      1.7874                 2.0312                 1.9536
 Frc consts  --      0.8309                 0.9648                 1.0086
 IR Inten    --     17.1342                22.4280                17.8238

                     40                     41                     42
                      A                      A                      A
 Frequencies --    940.0378               946.7697               953.7864
 Red. masses --      2.4957                 1.1909                 1.5967
 Frc consts  --      1.2994                 0.6290                 0.8558
 IR Inten    --      2.5712                 2.9174                19.5047

                     43                     44                     45
                      A                      A                      A
 Frequencies --    958.5870               974.7380               996.6268
 Red. masses --      2.3515                 2.1546                 1.6853
 Frc consts  --      1.2731                 1.2062                 0.9862
 IR Inten    --     12.1399                62.9918                 1.6580

                     46                     47                     48
                      A                      A                      A
 Frequencies --   1038.5021              1061.1516              1079.7843
 Red. masses --      1.3435                 1.5607                 2.1057
 Frc consts  --      0.8537                 1.0354                 1.4465
 IR Inten    --     11.1964                 9.6489                10.5290

                     49                     50                     51
                      A                      A                      A
 Frequencies --   1085.4675              1105.5854              1109.4336
 Red. masses --      3.6104                 2.5592                 3.3811
 Frc consts  --      2.5063                 1.8431                 2.4520
 IR Inten    --      8.5175                31.7645                38.8008

                     52                     53                     54
                      A                      A                      A
 Frequencies --   1116.7717              1138.8851              1148.9682
 Red. masses --      2.3679                 2.1414                 3.2101
 Frc consts  --      1.7400                 1.6365                 2.4968
 IR Inten    --     85.4666                 8.6487                31.1835

                     55                     56                     57
                      A                      A                      A
 Frequencies --   1157.5946              1173.6171              1213.6943
 Red. masses --      2.1131                 1.8756                 1.2875
 Frc consts  --      1.6683                 1.5221                 1.1174
 IR Inten    --     15.4899                53.8097                 2.8456

                     58                     59                     60
                      A                      A                      A
 Frequencies --   1228.5163              1236.9981              1255.6263
 Red. masses --      1.8845                 1.7159                 1.3859
 Frc consts  --      1.6757                 1.5469                 1.2874
 IR Inten    --      8.8758                15.9283                 3.4191

                     61                     62                     63
                      A                      A                      A
 Frequencies --   1269.7370              1304.7838              1311.1189
 Red. masses --      1.4815                 1.5354                 2.6453
 Frc consts  --      1.4072                 1.5401                 2.6792
 IR Inten    --     20.4126                13.7977               128.2029

                     64                     65                     66
                      A                      A                      A
 Frequencies --   1320.8794              1331.3202              1344.0614
 Red. masses --      1.3389                 1.2805                 1.2807
 Frc consts  --      1.3763                 1.3372                 1.3631
 IR Inten    --     17.4552                25.3416                 4.0395

                     67                     68                     69
                      A                      A                      A
 Frequencies --   1354.0688              1360.8979              1364.1595
 Red. masses --      1.3902                 1.2672                 1.2672
 Frc consts  --      1.5017                 1.3828                 1.3894
 IR Inten    --     14.5066                 1.2460                 4.1029

                     70                     71                     72
                      A                      A                      A
 Frequencies --   1382.1280              1403.3821              1411.7790
 Red. masses --      1.3223                 1.3593                 1.4296
 Frc consts  --      1.4883                 1.5773                 1.6788
 IR Inten    --      4.8478                 2.4177                 3.6659

                     73                     74                     75
                      A                      A                      A
 Frequencies --   1423.4886              1427.3447              1442.3750
 Red. masses --      1.2178                 1.2620                 1.2623
 Frc consts  --      1.4539                 1.5149                 1.5473
 IR Inten    --      7.7729                 6.4884                 8.1242

                     76                     77                     78
                      A                      A                      A
 Frequencies --   1446.4595              1451.8893              1485.0050
 Red. masses --      1.2712                 1.2330                 1.1558
 Frc consts  --      1.5670                 1.5313                 1.5017
 IR Inten    --      5.9254                20.9198                 6.2532

                     79                     80                     81
                      A                      A                      A
 Frequencies --   1488.5594              1506.4926              1511.6402
 Red. masses --      1.0840                 1.0843                 1.0476
 Frc consts  --      1.4152                 1.4499                 1.4104
 IR Inten    --      5.3463                 5.0464                 1.5383

                     82                     83                     84
                      A                      A                      A
 Frequencies --   1520.7820              1523.6165              1525.0656
 Red. masses --      1.0804                 1.0493                 1.0802
 Frc consts  --      1.4723                 1.4352                 1.4802
 IR Inten    --      0.2473                 0.5305                 8.3094

                     85                     86                     87
                      A                      A                      A
 Frequencies --   1527.1364              1533.2044              1535.3166
 Red. masses --      1.0524                 1.0689                 1.0484
 Frc consts  --      1.4461                 1.4805                 1.4560
 IR Inten    --      2.1548                 5.8194                 4.1765

                     88                     89                     90
                      A                      A                      A
 Frequencies --   1539.6481              1544.8941              1551.9528
 Red. masses --      1.0891                 1.0656                 1.0577
 Frc consts  --      1.5211                 1.4985                 1.5010
 IR Inten    --      1.0944                 2.9592                 6.4350

                     91                     92                     93
                      A                      A                      A
 Frequencies --   3037.9331              3048.8528              3049.9188
 Red. masses --      1.0694                 1.0387                 1.0686
 Frc consts  --      5.8149                 5.6885                 5.8566
 IR Inten    --     23.3448                20.6781                45.1442

                     94                     95                     96
                      A                      A                      A
 Frequencies --   3056.0206              3057.8651              3063.1090
 Red. masses --      1.0697                 1.0377                 1.0467
 Frc consts  --      5.8863                 5.7170                 5.7862
 IR Inten    --     30.2058                21.2328                17.1230

                     97                     98                     99
                      A                      A                      A
 Frequencies --   3071.1552              3074.6822              3084.3938
 Red. masses --      1.0706                 1.0716                 1.0628
 Frc consts  --      5.9493                 5.9690                 5.9573
 IR Inten    --     29.2303                31.7765                23.5979

                    100                    101                    102
                      A                      A                      A
 Frequencies --   3097.2812              3101.9219              3107.7844
 Red. masses --      1.0633                 1.0931                 1.0957
 Frc consts  --      6.0098                 6.1968                 6.2353
 IR Inten    --      4.0174                 1.7647                10.3351

                    103                    104                    105
                      A                      A                      A
 Frequencies --   3111.3772              3119.9272              3124.8431
 Red. masses --      1.0996                 1.0972                 1.1017
 Frc consts  --      6.2715                 6.2923                 6.3384
 IR Inten    --     16.8679                28.1850                63.6855

                    106                    107                    108
                      A                      A                      A
 Frequencies --   3126.2228              3129.0134              3132.0609
 Red. masses --      1.0994                 1.1006                 1.1003
 Frc consts  --      6.3305                 6.3491                 6.3596
 IR Inten    --     30.6668                37.1421                17.6274

                    109                    110                    111
                      A                      A                      A
 Frequencies --   3139.5912              3142.7212              3148.2102
 Red. masses --      1.0947                 1.1011                 1.0923
 Frc consts  --      6.3574                 6.4077                 6.3786
 IR Inten    --     23.3928                21.4669                13.5543

                    112                    113                    114
                      A                      A                      A
 Frequencies --   3163.4914              3183.3007              3466.2519
 Red. masses --      1.1010                 1.1000                 1.0743
 Frc consts  --      6.4916                 6.5677                 7.6051
 IR Inten    --      4.1177                 6.9645                 1.6863

 - Thermochemistry -
 -------------------
 Temperature   298.150 Kelvin.  Pressure   1.00000 Atm.
 Atom     1 has atomic number  6 and mass  12.00000

 Molecular mass:   248.15585 amu.
 Principal axes and moments of inertia in atomic units:
                           1         2         3
     Eigenvalues --  3268.313084315.317595387.39902
           X            0.99804   0.06135  -0.01268
           Y           -0.06108   0.99792   0.02072
           Z            0.01392  -0.01991   0.99970
 This molecule is an asymmetric top.
 Rotational symmetry number  1.
 Warning -- assumption of classical behavior for rotation
           may cause significant error
 Rotational temperatures (Kelvin)      0.02650     0.02007     0.01608
 Rotational constants (GHZ):           0.55219     0.41822     0.33499
 Zero-point vibrational energy     942323.5 (Joules/Mol)
                                  225.22073 (Kcal/Mol)
 Warning -- explicit consideration of  28 degrees of freedom as
           vibrations may cause significant error
 Vibrational temperatures:     59.30    78.13    90.37   117.46   119.83
          (Kelvin)            162.89   166.40   212.32   270.25   279.44
                              303.67   320.07   336.71   381.89   414.63
                              418.98   431.84   438.62   446.17   476.37
                              557.08   611.84   625.49   675.54   685.24
                              757.53   786.71   867.25   942.78   978.34
                             1052.94  1101.04  1180.10  1186.47  1235.44
                             1258.15  1278.01  1291.88  1346.84  1352.50
                             1362.19  1372.29  1379.19  1402.43  1433.92
                             1494.17  1526.76  1553.57  1561.75  1590.69
                             1596.23  1606.79  1638.60  1653.11  1665.52
                             1688.57  1746.24  1767.56  1779.76  1806.57
                             1826.87  1877.29  1886.41  1900.45  1915.47
                             1933.80  1948.20  1958.03  1962.72  1988.57
                             2019.15  2031.24  2048.08  2053.63  2075.26
                             2081.13  2088.94  2136.59  2141.70  2167.51
                             2174.91  2188.07  2192.14  2194.23  2197.21
                             2205.94  2208.98  2215.21  2222.76  2232.91
                             4370.91  4386.62  4388.15  4396.93  4399.59
                             4407.13  4418.71  4423.78  4437.75  4456.30
                             4462.97  4471.41  4476.58  4488.88  4495.95
                             4497.94  4501.95  4506.34  4517.17  4521.67
                             4529.57  4551.56  4580.06  4987.16

 Zero-point correction=                           0.358912 (Hartree/Particle)
 Thermal correction to Energy=                    0.377099
 Thermal correction to Enthalpy=                  0.378043
 Thermal correction to Gibbs Free Energy=         0.313237
 Sum of electronic and zero-point Energies=          -1091.408536
 Sum of electronic and thermal Energies=             -1091.390350
 Sum of electronic and thermal Enthalpies=           -1091.389405
 Sum of electronic and thermal Free Energies=        -1091.454212

                     E (Thermal)             CV                S
                      KCal/Mol        Cal/Mol-Kelvin    Cal/Mol-Kelvin
 Total                  236.633             68.966            136.397
 Electronic               0.000              0.000              0.000
 Translational            0.889              2.981             42.427
 Rotational               0.889              2.981             32.696
 Vibrational            234.856             63.005             61.273
 Vibration     1          0.594              1.981              5.200
 Vibration     2          0.596              1.976              4.654
 Vibration     3          0.597              1.972              4.367
 Vibration     4          0.600              1.962              3.851
 Vibration     5          0.600              1.961              3.812
 Vibration     6          0.607              1.939              3.213
 Vibration     7          0.608              1.936              3.172
 Vibration     8          0.617              1.905              2.703
 Vibration     9          0.633              1.857              2.249
 Vibration    10          0.635              1.848              2.187
 Vibration    11          0.643              1.824              2.034
 Vibration    12          0.648              1.807              1.939
 Vibration    13          0.654              1.789              1.848
 Vibration    14          0.671              1.736              1.626
 Vibration    15          0.685              1.696              1.485
 Vibration    16          0.687              1.690              1.467
 Vibration    17          0.693              1.673              1.416
 Vibration    18          0.696              1.664              1.390
 Vibration    19          0.699              1.654              1.362
 Vibration    20          0.713              1.613              1.255
 Vibration    21          0.756              1.498              1.011
 Vibration    22          0.787              1.415              0.874
 Vibration    23          0.795              1.395              0.843
 Vibration    24          0.827              1.318              0.739
 Vibration    25          0.833              1.303              0.720
 Vibration    26          0.881              1.191              0.595
 Vibration    27          0.902              1.147              0.551
 Vibration    28          0.961              1.026              0.445

 Optimization completed.
    -- Stationary point found.
 Normal termination of Gaussian 16 at Fri Dec 11 00:46:10 2020.

 ----------------------------------------------------------------------
 # B3LYP/6-311++G(d,p) empiricaldispersion=gd3bj scf=xqc pop=npa geom=c
 heck
 ----------------------------------------------------------------------

 --------------------------------------
 CID_82177219_JID_6943_Energie_neutraal
 --------------------------------------
 Structure from the checkpoint file:  "JID_6943.chk"
 Charge =  0 Multiplicity = 1

 SCF Done:  E(RB3LYP) =  -1091.99462579     A.U. after   15 cycles
 Normal termination of Gaussian 16 at Fri Dec 11 00:53:59 2020.

 ----------------------------------------------------------------------
 # B3LYP/6-311++G(d,p) empiricaldispersion=gd3bj scf=xqc pop=npa geom=c
 heck
 ----------------------------------------------------------------------

 ------------------------------------
 CID_82177219_JID_6943_Energie_kation
 ------------------------------------
 Structure from the checkpoint file:  "JID_6943.chk"
 Charge =  1 Multiplicity = 2

 SCF Done:  E(UB3LYP) =  -1091.69699875     A.U. after   21 cycles
 Normal termination of Gaussian 16 at Fri Dec 11 01:09:30 2020.
 Gaussian 16:  ES64L-G16RevA.03 25-Dec-2016

 ----------------------------------------------------------------------
 # B3LYP/6-311++G(d,p) empiricaldispersion=gd3bj scf=xqc pop=npa geom=c
 heck
 ----------------------------------------------------------------------

 -----------------------------------
 CID_82177219_JID_6943_Energie_anion
 -----------------------------------
 Structure from the checkpoint file:  "JID_6943.chk"
 Charge = -1 Multiplicity = 2

                         Standard orientation:
 ---------------------------------------------------------------------
 Center     Atomic      Atomic             Coordinates (Angstroms)
 Number     Number       Type             X           Y           Z
 ---------------------------------------------------------------------
      1          6           0       -1.595611   -2.469972    1.560104
      2          6           0       -1.777187   -2.450810    0.040914
      3          6           0       -2.794761   -1.419524   -0.459939
      4          6           0       -2.554921    0.033416   -0.053912
      5         16           0       -1.122474    0.850138   -0.840506
      6          8           0       -0.916080    0.212323   -2.148524
      7          8           0       -1.412197    2.286941   -0.744553
      8          7           0        0.226290    0.517953    0.106169
      9          6           0        1.219908   -0.438456   -0.408157
     10          6           0        1.727859   -1.473994    0.636701
     11          6           0        3.250356   -1.580772    0.350468
     12          7           0        3.507706   -0.925022   -0.946718
     13          6           0        2.527215    0.161886   -0.985598
     14          6           0        0.638080    1.462435    1.179010
     15          6           0        1.096850    2.845817    0.691077
     16          6           0       -0.423117    1.588961    2.275972
     17          1           0       -1.145448   -1.539970    1.921615
     18          1           0       -0.937797   -3.289969    1.867563
     19          1           0       -2.556360   -2.603131    2.072695
     20          1           0       -0.813216   -2.278294   -0.447317
     21          1           0       -2.112028   -3.439550   -0.297251
     22          1           0       -2.855237   -1.465879   -1.551895
     23          1           0       -3.789230   -1.684932   -0.075137
     24          1           0       -3.388964    0.661673   -0.380586
     25          1           0       -2.436612    0.166660    1.022796
     26          1           0        0.729841   -0.967569   -1.224490
     27          1           0        1.221830   -2.434025    0.504240
     28          1           0        1.524663   -1.149252    1.661356
     29          1           0        3.817654   -1.042129    1.119692
     30          1           0        3.618950   -2.609965    0.335362
     31          1           0        3.286063   -1.584522   -1.692926
     32          1           0        2.395168    0.554717   -1.996953
     33          1           0        2.896450    0.973888   -0.349753
     34          1           0        1.505089    0.964562    1.624911
     35          1           0        0.246724    3.448532    0.371680
     36          1           0        1.613342    3.361901    1.509179
     37          1           0        1.788015    2.765624   -0.151233
     38          1           0       -0.701715    0.607557    2.673572
     39          1           0       -0.029193    2.191656    3.101137
     40          1           0       -1.318180    2.091664    1.898450
 ---------------------------------------------------------------------

 SCF Done:  E(UB3LYP) =  -1091.98476479     A.U. after   29 cycles

 The electronic state is 2-A.
 Alpha  occ. eigenvalues --  -88.96931 -19.02560 -19.02259 -14.25229 -14.21063
 Alpha  occ. eigenvalues --  -10.13142 -10.12099 -10.11649 -10.10148 -10.09926
 Alpha  occ. eigenvalues --  -10.08810 -10.07548 -10.07424 -10.07405 -10.06888
 Alpha  occ. eigenvalues --  -10.06225  -8.03086  -5.99389  -5.99352  -5.99130
 Alpha  occ. eigenvalues --   -1.02571  -0.91715  -0.85284  -0.82478  -0.72621
 Alpha  occ. eigenvalues --   -0.69987  -0.67187  -0.65054  -0.63220  -0.60279
 Alpha  occ. eigenvalues --   -0.58508  -0.54898  -0.52662  -0.50978  -0.49143
 Alpha  occ. eigenvalues --   -0.45833  -0.43217  -0.42026  -0.40670  -0.40573
 Alpha  occ. eigenvalues --   -0.38243  -0.37357  -0.36307  -0.35569  -0.34980
 Alpha  occ. eigenvalues --   -0.34425  -0.33170  -0.32471  -0.31532  -0.30960
 Alpha  occ. eigenvalues --   -0.30623  -0.29804  -0.28848  -0.28653  -0.27648
 Alpha  occ. eigenvalues --   -0.27186  -0.26414  -0.26017  -0.25123  -0.24792
 Alpha  occ. eigenvalues --   -0.24438  -0.24243  -0.23869  -0.22680  -0.21423
 Alpha  occ. eigenvalues --   -0.20586  -0.17311  -0.13812   0.03969
 Alpha virt. eigenvalues --    0.06027   0.06143   0.07527   0.08063   0.08332
 Alpha virt. eigenvalues --    0.08872   0.09239   0.09537   0.10621   0.10771
 Alpha virt. eigenvalues --    0.11483   0.11714   0.11886   0.12182   0.12672

  Beta  occ. eigenvalues --  -88.96930 -19.02556 -19.02256 -14.25229 -14.21052
  Beta  occ. eigenvalues --  -10.13130 -10.12096 -10.11637 -10.10141 -10.09900
  Beta  occ. eigenvalues --  -10.08795 -10.07532 -10.07402 -10.07377 -10.06879
  Beta  occ. eigenvalues --  -10.06185  -8.03085  -5.99386  -5.99351  -5.99129
  Beta  occ. eigenvalues --   -1.02565  -0.91709  -0.85273  -0.82459  -0.72591
  Beta  occ. eigenvalues --   -0.69962  -0.67158  -0.65016  -0.63185  -0.60238
  Beta  occ. eigenvalues --   -0.58464  -0.54858  -0.52628  -0.50915  -0.49085
  Beta  occ. eigenvalues --   -0.45802  -0.43190  -0.41980  -0.40648  -0.40553
  Beta  occ. eigenvalues --   -0.38212  -0.37334  -0.36290  -0.35535  -0.34958
  Beta  occ. eigenvalues --   -0.34394  -0.33143  -0.32438  -0.31502  -0.30930
  Beta  occ. eigenvalues --   -0.30587  -0.29773  -0.28820  -0.28620  -0.27617
  Beta  occ. eigenvalues --   -0.27159  -0.26390  -0.25987  -0.25079  -0.24760
  Beta  occ. eigenvalues --   -0.24411  -0.24215  -0.23845  -0.22666  -0.21413
  Beta  occ. eigenvalues --   -0.20572  -0.17299  -0.13796
  Beta virt. eigenvalues --    0.06195   0.06816   0.06867   0.08002   0.08494
  Beta virt. eigenvalues --    0.08768   0.09199   0.09642   0.09991   0.10862
  Beta virt. eigenvalues --    0.11073   0.11672   0.12003   0.12080   0.12346

 Mulliken charges and spin densities:
               1          2
     1  C    0.890805  -1.506260
     2  C   -0.520970   0.581302
     3  C    0.201989  -0.732281
     4  C   -0.673332   0.215859
     5  S    0.703765  -0.588795
     6  O   -0.124118   0.021199
     7  O   -0.092614   0.007513
     8  N    0.300385   0.056824
     9  C   -0.829633   0.017404
    10  C   -0.238808   0.529317
    11  C    0.630388  -1.381245
    12  N   -0.135803   0.170588
    13  C    0.160526  -0.719906
    14  C   -0.749776   0.584349
    15  C   -0.264163  -0.386490
    16  C    0.627115  -1.014350
    17  H    0.529972  -0.388692
    18  H   -0.373883   0.531792
    19  H   -0.433555   0.582569
    20  H   -0.248525   0.348739
    21  H   -0.350855   0.562894
    22  H    0.228744  -0.027020
    23  H   -0.354825   0.521562
    24  H    0.105883   0.129936
    25  H    0.251893  -0.007267
    26  H    0.141642   0.066391
    27  H    0.397758  -0.270619
    28  H   -0.237775   0.399179
    29  H   -0.074673   0.248317
    30  H   -0.453506   0.649885
    31  H    0.074287   0.155415
    32  H    0.159124   0.042970
    33  H    0.041788   0.151442
    34  H    0.099803   0.080820
    35  H    0.172727   0.011346
    36  H   -0.076554   0.218139
    37  H    0.169056  -0.037645
    38  H   -0.446901   0.627880
    39  H   -0.277003   0.434417
    40  H    0.069623   0.112522
 Sum of Mulliken charges =  -1.00000   1.00000

 Dipole moment (field-independent basis, Debye):
    X=             -0.2829    Y=              4.2143    Z=             -3.0577  Tot=              5.2144
 Quadrupole moment (field-independent basis, Debye-Ang):
   XX=           -172.6752   YY=           -170.4515   ZZ=           -158.6223
   XY=             -1.2800   XZ=              1.1065   YZ=              7.3556

 Summary of Natural Population Analysis:

                                       Natural Population
                Natural  -----------------------------------------------
    Atom  No    Charge         Core      Valence    Rydberg      Total
 -----------------------------------------------------------------------
      C    1   -0.28841      0.99966     2.28273    0.00602     3.28841
      C    2   -0.19346      0.99963     2.18513    0.00870     3.19346
      C    3   -0.19830      0.99961     2.18911    0.00958     3.19830
      C    4   -0.28500      0.99956     2.27432    0.01112     3.28500
      S    5    1.10772      4.99922     1.79409    0.09898     6.89228
      O    6   -0.46836      0.99991     3.46329    0.00516     4.46836
      O    7   -0.47172      0.99991     3.46652    0.00529     4.47172
      N    8   -0.38487      0.99968     2.86871    0.01648     3.88487
      C    9   -0.01976      0.99955     2.00525    0.01495     3.01976
      C   10   -0.20821      0.99961     2.19922    0.00938     3.20821
      C   11   -0.09120      0.99964     2.08070    0.01085     3.09120
      N   12   -0.33259      0.99977     2.82120    0.01162     3.83259
      C   13   -0.09480      0.99960     2.08542    0.00978     3.09480
      C   14   -0.00992      0.99959     1.99686    0.01347     3.00992
      C   15   -0.29259      0.99963     2.28719    0.00577     3.29259
      C   16   -0.29152      0.99963     2.28565    0.00624     3.29152
      H   17    0.09534      0.00000     0.40284    0.00182     0.40466
      H   18    0.10404      0.00000     0.39453    0.00143     0.39596
      H   19    0.09746      0.00000     0.40097    0.00157     0.40254
      H   20    0.09483      0.00000     0.40270    0.00247     0.40517
      H   21    0.09853      0.00000     0.40023    0.00124     0.40147
      H   22    0.10767      0.00000     0.39112    0.00121     0.39233
      H   23    0.10284      0.00000     0.39591    0.00125     0.39716
      H   24    0.11560      0.00000     0.38339    0.00101     0.38440
      H   25    0.11598      0.00000     0.38256    0.00146     0.38402
      H   26    0.11353      0.00000     0.38440    0.00207     0.38647
      H   27    0.10454      0.00000     0.39381    0.00164     0.39546
      H   28    0.10324      0.00000     0.39477    0.00199     0.39676
      H   29    0.08959      0.00000     0.40884    0.00158     0.41041
      H   30    0.09874      0.00000     0.39993    0.00133     0.40126
      H   31    0.16916      0.00000     0.32841    0.00243     0.33084
      H   32    0.10018      0.00000     0.39888    0.00093     0.39982
      H   33    0.09040      0.00000     0.40812    0.00148     0.40960
      H   34    0.10119      0.00000     0.39634    0.00247     0.39881
      H   35    0.11243      0.00000     0.38648    0.00109     0.38757
      H   36    0.09781      0.00000     0.40149    0.00070     0.40219
      H   37    0.09993      0.00000     0.39920    0.00087     0.40007
      H   38    0.10272      0.00000     0.39572    0.00156     0.39728
      H   39    0.10416      0.00000     0.39490    0.00094     0.39584
      H   40    0.10309      0.00000     0.39577    0.00114     0.39691
 =======================================================================
   * Total *   -0.00000     19.99419    47.72669    0.27912    68.00000

 Normal termination of Gaussian 16 at Fri Dec 11 01:29:35 2020.
