 Gaussian 16, Revision A.03,

 -----------------------------------------------------------
 # opt freq B3LYP/6-31G(d) empiricaldispersion=gd3bj scf=xqc
 -----------------------------------------------------------

 ------------------------------
 CID_52021216_JID_9236_neutraal
 ------------------------------
 Symbolic Z-matrix:
 Charge =  0 Multiplicity = 1

 SCF Done:  E(RB3LYP) =  -1179.04258985     A.U. after   15 cycles
 SCF Done:  E(RB3LYP) =  -1179.04766742     A.U. after   13 cycles
 SCF Done:  E(RB3LYP) =  -1179.04141148     A.U. after   13 cycles
 SCF Done:  E(RB3LYP) =  -1179.04914225     A.U. after   12 cycles
 SCF Done:  E(RB3LYP) =  -1179.05012033     A.U. after   13 cycles
 SCF Done:  E(RB3LYP) =  -1179.05131205     A.U. after   12 cycles
 SCF Done:  E(RB3LYP) =  -1179.05231276     A.U. after   13 cycles
 SCF Done:  E(RB3LYP) =  -1179.05270189     A.U. after   12 cycles
 SCF Done:  E(RB3LYP) =  -1179.05290979     A.U. after   11 cycles
 SCF Done:  E(RB3LYP) =  -1179.05295195     A.U. after   11 cycles
 SCF Done:  E(RB3LYP) =  -1179.05319976     A.U. after   10 cycles
 SCF Done:  E(RB3LYP) =  -1179.05320986     A.U. after   10 cycles
 SCF Done:  E(RB3LYP) =  -1179.05321431     A.U. after   10 cycles
 SCF Done:  E(RB3LYP) =  -1179.05321566     A.U. after    8 cycles
 SCF Done:  E(RB3LYP) =  -1179.05321610     A.U. after    8 cycles
 Optimization completed.
    -- Stationary point found.
 Normal termination of Gaussian 16 at Sun Dec 13 16:24:55 2020.

 --------------------------------------------------------------------
 #N Geom=AllCheck Guess=TCheck SCRF=Check GenChk RB3LYP/6-31G(d) Freq
 --------------------------------------------------------------------

 Structure from the checkpoint file:  "JID_9236.chk"
 ------------------------------
 CID_52021216_JID_9236_neutraal
 ------------------------------
 Charge =  0 Multiplicity = 1

 SCF Done:  E(RB3LYP) =  -1179.05321610     A.U. after    1 cycles

  Exact polarizability: 248.562  16.247 195.873  26.821  -5.568 122.703
 Approx polarizability: 355.683  41.329 351.849  62.619 -15.529 213.292

                      1                      2                      3
                      A                      A                      A
 Frequencies --     20.9481                31.8750                51.0971
 Red. masses --      5.2191                 5.1313                 4.2299
 Frc consts  --      0.0013                 0.0031                 0.0065
 IR Inten    --      0.4882                 0.6879                 1.1540

                      4                      5                      6
                      A                      A                      A
 Frequencies --     68.3532                94.4512               111.8700
 Red. masses --      1.0728                 6.6798                 4.8818
 Frc consts  --      0.0030                 0.0351                 0.0360
 IR Inten    --      0.1080                 2.4401                 0.1418

                      7                      8                      9
                      A                      A                      A
 Frequencies --    139.7029               153.2510               167.4209
 Red. masses --      6.4133                 1.6062                 1.8117
 Frc consts  --      0.0737                 0.0222                 0.0299
 IR Inten    --      0.5886                 5.1318                 1.5809

                     10                     11                     12
                      A                      A                      A
 Frequencies --    181.1022               220.1004               267.2390
 Red. masses --      3.9858                 5.4556                 5.2880
 Frc consts  --      0.0770                 0.1557                 0.2225
 IR Inten    --      1.7036                 4.1245                 6.6603

                     13                     14                     15
                      A                      A                      A
 Frequencies --    284.0614               309.7265               322.5384
 Red. masses --      3.4007                 5.3863                 4.1303
 Frc consts  --      0.1617                 0.3044                 0.2532
 IR Inten    --      0.9887                 0.5650                 2.2635

                     16                     17                     18
                      A                      A                      A
 Frequencies --    348.1945               359.8997               425.8120
 Red. masses --      3.9160                 4.6054                 4.2280
 Frc consts  --      0.2797                 0.3515                 0.4517
 IR Inten    --      1.9976                 4.5953                 1.1984

                     19                     20                     21
                      A                      A                      A
 Frequencies --    433.9501               466.1117               484.2527
 Red. masses --      5.7899                 7.3532                 4.3822
 Frc consts  --      0.6424                 0.9412                 0.6055
 IR Inten    --     10.2732                 5.2325                 3.1841

                     22                     23                     24
                      A                      A                      A
 Frequencies --    527.5655               533.4908               587.2626
 Red. masses --      2.9400                 3.4043                 2.9719
 Frc consts  --      0.4821                 0.5709                 0.6039
 IR Inten    --      2.2051                27.0695                30.3159

                     25                     26                     27
                      A                      A                      A
 Frequencies --    602.2256               609.3715               655.0452
 Red. masses --      4.8490                 4.3926                 2.5624
 Frc consts  --      1.0362                 0.9610                 0.6478
 IR Inten    --     10.7212                22.2893                42.4251

                     28                     29                     30
                      A                      A                      A
 Frequencies --    661.7298               668.0923               698.3324
 Red. masses --      1.6507                 7.6200                 3.8462
 Frc consts  --      0.4259                 2.0039                 1.1051
 IR Inten    --     18.5425                 1.5300                 3.1409

                     31                     32                     33
                      A                      A                      A
 Frequencies --    728.6354               755.3571               762.0674
 Red. masses --      2.9008                 4.4715                 4.3670
 Frc consts  --      0.9074                 1.5032                 1.4943
 IR Inten    --     44.5121                26.7627                23.5284

                     34                     35                     36
                      A                      A                      A
 Frequencies --    778.6898               786.4977               819.3472
 Red. masses --      4.9332                 4.1835                 3.4849
 Frc consts  --      1.7624                 1.5247                 1.3784
 IR Inten    --     27.1091                 9.5310                 1.4319

                     37                     38                     39
                      A                      A                      A
 Frequencies --    828.7620               839.0468               856.5258
 Red. masses --      1.7096                 1.8089                 3.9239
 Frc consts  --      0.6919                 0.7503                 1.6961
 IR Inten    --      9.3510                27.8060                 9.5719

                     40                     41                     42
                      A                      A                      A
 Frequencies --    861.1175               941.3494               945.1882
 Red. masses --      1.3306                 3.9740                 1.3311
 Frc consts  --      0.5813                 2.0748                 0.7007
 IR Inten    --      2.2509                 6.9673                 1.8357

                     43                     44                     45
                      A                      A                      A
 Frequencies --    978.2000              1018.7382              1029.0444
 Red. masses --      1.3295                 1.5381                 2.9398
 Frc consts  --      0.7495                 0.9405                 1.8342
 IR Inten    --      0.0761                 5.6785                 4.4690

                     46                     47                     48
                      A                      A                      A
 Frequencies --   1050.9173              1079.0213              1101.8972
 Red. masses --      2.6675                 1.4993                 1.6179
 Frc consts  --      1.7358                 1.0285                 1.1574
 IR Inten    --      4.5780                 3.4234                13.6850

                     49                     50                     51
                      A                      A                      A
 Frequencies --   1126.8518              1159.2051              1173.9475
 Red. masses --      1.5014                 1.2882                 1.2305
 Frc consts  --      1.1233                 1.0199                 0.9991
 IR Inten    --     42.8950                 1.8202                 4.7962

                     52                     53                     54
                      A                      A                      A
 Frequencies --   1183.3978              1218.4953              1252.6941
 Red. masses --      1.5003                 2.2557                 3.0374
 Frc consts  --      1.2379                 1.9733                 2.8083
 IR Inten    --      3.0837                99.9620                43.3308

                     55                     56                     57
                      A                      A                      A
 Frequencies --   1259.4004              1291.7837              1335.5732
 Red. masses --      2.9587                 3.5755                 3.8188
 Frc consts  --      2.7649                 3.5153                 4.0134
 IR Inten    --      8.7496               276.4077                41.2505

                     58                     59                     60
                      A                      A                      A
 Frequencies --   1338.2002              1357.2824              1415.5550
 Red. masses --      1.9346                 1.9874                 2.9970
 Frc consts  --      2.0412                 2.1571                 3.5383
 IR Inten    --     39.8959                11.8530               162.2948

                     61                     62                     63
                      A                      A                      A
 Frequencies --   1423.0151              1431.6687              1439.6510
 Red. masses --      3.6164                 5.7992                 5.2076
 Frc consts  --      4.3146                 7.0033                 6.3592
 IR Inten    --    286.9527                11.1966                 5.7617

                     64                     65                     66
                      A                      A                      A
 Frequencies --   1447.3008              1487.4908              1488.8022
 Red. masses --      1.2522                 1.9903                 1.4535
 Frc consts  --      1.5454                 2.5946                 1.8981
 IR Inten    --      0.1174               136.0306                 6.5653

                     67                     68                     69
                      A                      A                      A
 Frequencies --   1515.0793              1517.3304              1522.7367
 Red. masses --      1.0447                 1.7525                 1.5705
 Frc consts  --      1.4129                 2.3772                 2.1456
 IR Inten    --      4.2293                72.9812                56.2740

                     70                     71                     72
                      A                      A                      A
 Frequencies --   1527.2982              1530.4064              1543.9766
 Red. masses --      1.4003                 1.4831                 2.2678
 Frc consts  --      1.9246                 2.0466                 3.1853
 IR Inten    --     41.4028                51.1201                86.0735

                     73                     74                     75
                      A                      A                      A
 Frequencies --   1558.9324              1589.1991              1630.5602
 Red. masses --      2.3378                 5.8539                 5.3069
 Frc consts  --      3.3474                 8.7107                 8.3132
 IR Inten    --     41.9846                60.8733                71.6834

                     76                     77                     78
                      A                      A                      A
 Frequencies --   1668.1372              1754.9793              3044.6328
 Red. masses --      5.8999                 8.0290                 1.0374
 Frc consts  --      9.6730                14.5698                 5.6656
 IR Inten    --     74.8926               436.4568                38.1831

                     79                     80                     81
                      A                      A                      A
 Frequencies --   3067.2460              3096.6097              3126.9592
 Red. masses --      1.0360                 1.1013                 1.1008
 Frc consts  --      5.7424                 6.2221                 6.3415
 IR Inten    --     41.6597                18.6037                12.4144

                     82                     83                     84
                      A                      A                      A
 Frequencies --   3127.0707              3164.5201              3182.6189
 Red. masses --      1.1054                 1.0905                 1.0881
 Frc consts  --      6.3687                 6.4344                 6.4937
 IR Inten    --     23.3502                24.3133                14.6324

                     85                     86                     87
                      A                      A                      A
 Frequencies --   3183.6357              3202.1137              3231.9394
 Red. masses --      1.1004                 1.0952                 1.0905
 Frc consts  --      6.5710                 6.6165                 6.7111
 IR Inten    --      3.2784                12.9743                 5.2010

                     88                     89                     90
                      A                      A                      A
 Frequencies --   3268.8488              3290.8049              3575.0862
 Red. masses --      1.0970                 1.0961                 1.0753
 Frc consts  --      6.9064                 6.9938                 8.0972
 IR Inten    --      1.3072                 0.4202                36.0400

 - Thermochemistry -
 -------------------
 Temperature   298.150 Kelvin.  Pressure   1.00000 Atm.
 Atom     1 has atomic number  6 and mass  12.00000

 Molecular mass:   271.07793 amu.
 Principal axes and moments of inertia in atomic units:
                           1         2         3
     Eigenvalues --  3013.681688269.75116**********
           X            0.99988  -0.01497  -0.00402
           Y            0.01498   0.99988   0.00401
           Z            0.00396  -0.00407   0.99998
 This molecule is an asymmetric top.
 Rotational symmetry number  1.
 Warning -- assumption of classical behavior for rotation
           may cause significant error
 Rotational temperatures (Kelvin)      0.02874     0.01047     0.00866
 Rotational constants (GHZ):           0.59885     0.21823     0.18035
 Zero-point vibrational energy     654336.5 (Joules/Mol)
                                  156.39017 (Kcal/Mol)
 Warning -- explicit consideration of  26 degrees of freedom as
           vibrations may cause significant error
 Vibrational temperatures:     30.14    45.86    73.52    98.34   135.89
          (Kelvin)            160.96   201.00   220.49   240.88   260.57
                              316.68   384.50   408.70   445.63   464.06
                              500.97   517.82   612.65   624.36   670.63
                              696.73   759.05   767.57   844.94   866.47
                              876.75   942.46   952.08   961.24  1004.74
                             1048.34  1086.79  1096.45  1120.36  1131.59
                             1178.86  1192.40  1207.20  1232.35  1238.96
                             1354.39  1359.91  1407.41  1465.74  1480.57
                             1512.04  1552.47  1585.38  1621.29  1667.84
                             1689.05  1702.65  1753.14  1802.35  1812.00
                             1858.59  1921.59  1925.37  1952.83  2036.67
                             2047.40  2059.85  2071.34  2082.34  2140.17
                             2142.05  2179.86  2183.10  2190.88  2197.44
                             2201.91  2221.44  2242.96  2286.50  2346.01
                             2400.08  2525.02  4380.55  4413.08  4455.33
                             4499.00  4499.16  4553.04  4579.08  4580.54
                             4607.13  4650.04  4703.14  4734.73  5143.75

 Zero-point correction=                           0.249224 (Hartree/Particle)
 Thermal correction to Energy=                    0.266115
 Thermal correction to Enthalpy=                  0.267059
 Thermal correction to Gibbs Free Energy=         0.202766
 Sum of electronic and zero-point Energies=          -1178.803993
 Sum of electronic and thermal Energies=             -1178.787101
 Sum of electronic and thermal Enthalpies=           -1178.786157
 Sum of electronic and thermal Free Energies=        -1178.850450

                     E (Thermal)             CV                S
                      KCal/Mol        Cal/Mol-Kelvin    Cal/Mol-Kelvin
 Total                  166.989             64.105            135.316
 Electronic               0.000              0.000              0.000
 Translational            0.889              2.981             42.691
 Rotational               0.889              2.981             33.877
 Vibrational            165.212             58.143             58.748
 Vibration     1          0.593              1.986              6.542
 Vibration     2          0.594              1.983              5.709
 Vibration     3          0.595              1.977              4.774
 Vibration     4          0.598              1.969              4.200
 Vibration     5          0.603              1.953              3.566
 Vibration     6          0.607              1.940              3.236
 Vibration     7          0.615              1.914              2.808
 Vibration     8          0.619              1.899              2.631
 Vibration     9          0.624              1.883              2.464
 Vibration    10          0.630              1.865              2.317
 Vibration    11          0.647              1.810              1.958
 Vibration    12          0.672              1.733              1.614
 Vibration    13          0.682              1.703              1.509
 Vibration    14          0.699              1.655              1.364
 Vibration    15          0.708              1.630              1.297
 Vibration    16          0.726              1.579              1.174
 Vibration    17          0.734              1.555              1.123
 Vibration    18          0.788              1.414              0.872
 Vibration    19          0.795              1.396              0.846
 Vibration    20          0.823              1.325              0.749
 Vibration    21          0.840              1.285              0.699
 Vibration    22          0.883              1.189              0.593
 Vibration    23          0.888              1.176              0.579
 Vibration    24          0.944              1.059              0.472
 Vibration    25          0.961              1.027              0.446
 Vibration    26          0.968              1.012              0.434

                           ! Non-Optimized Parameters !
 Normal termination of Gaussian 16 at Sun Dec 13 16:42:17 2020.

 ----------------------------------------------------------------------
 # B3LYP/6-311++G(d,p) empiricaldispersion=gd3bj scf=xqc pop=npa geom=c
 heck
 ----------------------------------------------------------------------

 --------------------------------------
 CID_52021216_JID_9236_Energie_neutraal
 --------------------------------------
 Structure from the checkpoint file:  "JID_9236.chk"
 Charge =  0 Multiplicity = 1

 SCF Done:  E(RB3LYP) =  -1179.28537717     A.U. after   16 cycles
 Normal termination of Gaussian 16 at Sun Dec 13 16:49:57 2020.

 ----------------------------------------------------------------------
 # B3LYP/6-311++G(d,p) empiricaldispersion=gd3bj scf=xqc pop=npa geom=c
 heck
 ----------------------------------------------------------------------

 ------------------------------------
 CID_52021216_JID_9236_Energie_kation
 ------------------------------------
 Structure from the checkpoint file:  "JID_9236.chk"
 Charge =  1 Multiplicity = 2

 SCF Done:  E(UB3LYP) =  -1179.01701077     A.U. after   32 cycles
 Normal termination of Gaussian 16 at Sun Dec 13 17:11:40 2020.
 Gaussian 16:  ES64L-G16RevA.03 25-Dec-2016

 ----------------------------------------------------------------------
 # B3LYP/6-311++G(d,p) empiricaldispersion=gd3bj scf=xqc pop=npa geom=c
 heck
 ----------------------------------------------------------------------

 -----------------------------------
 CID_52021216_JID_9236_Energie_anion
 -----------------------------------
 Structure from the checkpoint file:  "JID_9236.chk"
 Charge = -1 Multiplicity = 2

                         Standard orientation:
 ---------------------------------------------------------------------
 Center     Atomic      Atomic             Coordinates (Angstroms)
 Number     Number       Type             X           Y           Z
 ---------------------------------------------------------------------
      1          6           0        4.385699   -2.715019   -0.695143
      2          6           0        3.641097   -1.434461   -0.422242
      3          6           0        2.327998   -1.241984   -0.853331
      4          7           0        1.614900   -0.126430   -0.657959
      5          6           0        2.186949    0.868318    0.018339
      6          6           0        3.502303    0.792276    0.509754
      7          6           0        4.225737   -0.366036    0.274502
      8          7           0        1.445769    2.038429    0.251979
      9          6           0        0.125361    2.325099   -0.138929
     10          8           0       -0.137536    3.459940   -0.520664
     11          6           0       -0.907468    1.291679   -0.034713
     12          6           0       -2.022190    1.238064   -0.869277
     13          6           0       -2.749086    0.095172   -0.485929
     14          6           0       -2.080681   -0.502511    0.592303
     15          7           0       -0.956794    0.229483    0.870162
     16          6           0       -0.083882   -0.040626    1.997793
     17          6           0       -2.728825   -1.653362    1.128096
     18          6           0       -3.878075   -1.920720    0.435759
     19         16           0       -4.204844   -0.787138   -0.867809
     20          1           0        4.721966   -3.190862    0.234122
     21          1           0        3.753314   -3.432370   -1.227225
     22          1           0        5.277308   -2.538057   -1.308992
     23          1           0        1.816628   -2.031613   -1.402608
     24          1           0        3.931486    1.620242    1.066461
     25          1           0        5.246287   -0.449368    0.640789
     26          1           0        1.991479    2.892934    0.280791
     27          1           0       -2.223518    1.945843   -1.658838
     28          1           0       -0.691818   -0.342558    2.855560
     29          1           0        0.630490   -0.835619    1.761905
     30          1           0        0.466087    0.862458    2.259190
     31          1           0       -2.371299   -2.254670    1.955420
     32          1           0       -4.567360   -2.737384    0.602517
 ---------------------------------------------------------------------

 SCF Done:  E(UB3LYP) =  -1179.29268662     A.U. after   33 cycles
 SCF Done:  E(UB3LYP) =  -1179.29268662     a.u. after    1 cycles

 The electronic state is 2-A.
 Alpha  occ. eigenvalues --  -88.75045 -18.93895 -14.23239 -14.21064 -14.16257
 Alpha  occ. eigenvalues --  -10.12031 -10.11318 -10.09186 -10.07844 -10.07248
 Alpha  occ. eigenvalues --  -10.07226 -10.07100 -10.06810 -10.06290 -10.06147
 Alpha  occ. eigenvalues --  -10.05949 -10.05822 -10.05724 -10.03259  -7.83619
 Alpha  occ. eigenvalues --   -5.79936  -5.79592  -5.79160  -0.89864  -0.86081
 Alpha  occ. eigenvalues --   -0.83508  -0.77228  -0.74446  -0.69310  -0.67536
 Alpha  occ. eigenvalues --   -0.65067  -0.61866  -0.59509  -0.58185  -0.56322
 Alpha  occ. eigenvalues --   -0.52637  -0.50006  -0.48985  -0.44504  -0.43659
 Alpha  occ. eigenvalues --   -0.42558  -0.41231  -0.38697  -0.37148  -0.35449
 Alpha  occ. eigenvalues --   -0.34923  -0.34081  -0.32585  -0.32228  -0.32091
 Alpha  occ. eigenvalues --   -0.30554  -0.29465  -0.29095  -0.28914  -0.28042
 Alpha  occ. eigenvalues --   -0.27541  -0.26993  -0.26551  -0.25456  -0.25216
 Alpha  occ. eigenvalues --   -0.24692  -0.22226  -0.21182  -0.18113  -0.16689
 Alpha  occ. eigenvalues --   -0.15414  -0.13873  -0.12153  -0.10229  -0.09742
 Alpha  occ. eigenvalues --   -0.07872   0.04227
 Alpha virt. eigenvalues --    0.06910   0.07909   0.08162   0.08224   0.09067
 Alpha virt. eigenvalues --    0.09663   0.10143   0.10820   0.10978   0.11219
 Alpha virt. eigenvalues --    0.11588   0.12431   0.13013   0.13204   0.13654

  Beta  occ. eigenvalues --  -88.75035 -18.93521 -14.23126 -14.21143 -14.15951
  Beta  occ. eigenvalues --  -10.11753 -10.11198 -10.09190 -10.07841 -10.07172
  Beta  occ. eigenvalues --  -10.07105 -10.07041 -10.06797 -10.06336 -10.06157
  Beta  occ. eigenvalues --  -10.05999 -10.05763 -10.05509 -10.03159  -7.83609
  Beta  occ. eigenvalues --   -5.79933  -5.79589  -5.79122  -0.89302  -0.85899
  Beta  occ. eigenvalues --   -0.83141  -0.77008  -0.74312  -0.68988  -0.67397
  Beta  occ. eigenvalues --   -0.64899  -0.61758  -0.59202  -0.58056  -0.56215
  Beta  occ. eigenvalues --   -0.52260  -0.49757  -0.48666  -0.44400  -0.43400
  Beta  occ. eigenvalues --   -0.42415  -0.41150  -0.38612  -0.36981  -0.35353
  Beta  occ. eigenvalues --   -0.34698  -0.33927  -0.32368  -0.32091  -0.31967
  Beta  occ. eigenvalues --   -0.30336  -0.29234  -0.28883  -0.28596  -0.27894
  Beta  occ. eigenvalues --   -0.27317  -0.26722  -0.26100  -0.25390  -0.25099
  Beta  occ. eigenvalues --   -0.23759  -0.22160  -0.20699  -0.17139  -0.15594
  Beta  occ. eigenvalues --   -0.15028  -0.13486  -0.11825  -0.09619  -0.09308
  Beta  occ. eigenvalues --   -0.06999
  Beta virt. eigenvalues --    0.06841   0.07914   0.08147   0.08693   0.09023
  Beta virt. eigenvalues --    0.09576   0.09788   0.10141   0.10813   0.10975
  Beta virt. eigenvalues --    0.11508   0.11860   0.12455   0.12973   0.13629

 Mulliken charges and spin densities:
               1          2
     1  C   -0.651524  -0.094908
     2  C    0.442026  -0.014701
     3  C   -0.695616   0.029538
     4  N    0.023062   0.135668
     5  C   -0.204936   0.099954
     6  C   -0.187528   0.031368
     7  C    0.078028   0.162234
     8  N   -0.191115  -0.050166
     9  C   -0.141614   0.164127
    10  O   -0.376956   0.131614
    11  C    0.096128   0.004955
    12  C    0.336765   0.082055
    13  C    0.592370  -0.029960
    14  C   -0.638220   0.053754
    15  N    0.375533   0.036830
    16  C   -0.394238  -0.019346
    17  C   -0.362142  -0.024248
    18  C   -0.383201   0.140973
    19  S   -0.648401   0.012947
    20  H    0.140068  -0.004691
    21  H    0.127501   0.002834
    22  H    0.076090   0.058592
    23  H    0.137378   0.010438
    24  H    0.077345   0.042284
    25  H    0.124682   0.011363
    26  H    0.301498   0.014718
    27  H    0.176894  -0.005978
    28  H    0.112020   0.020531
    29  H    0.175476   0.009040
    30  H    0.153726   0.000083
    31  H    0.124761  -0.001737
    32  H    0.204140  -0.010165
 Sum of Mulliken charges =  -1.00000   1.00000

 Dipole moment (field-independent basis, Debye):
    X=              2.2170    Y=             -4.1676    Z=              3.1262  Tot=              5.6619
 Quadrupole moment (field-independent basis, Debye-Ang):
   XX=           -163.6385   YY=           -149.6752   ZZ=           -126.5406
   XY=              4.6197   XZ=              2.5792   YZ=              2.4230

 Summary of Natural Population Analysis:

                                       Natural Population
                Natural  -----------------------------------------------
    Atom  No    Charge         Core      Valence    Rydberg      Total
 -----------------------------------------------------------------------
      C    1   -0.28841      0.99965     2.28432    0.00444     3.28841
      C    2   -0.05138      0.99951     2.04395    0.00793     3.05138
      C    3    0.03298      0.99954     1.95454    0.01295     2.96702
      N    4   -0.21017      0.99967     2.69844    0.01207     3.71017
      C    5    0.20734      0.99952     1.77664    0.01650     2.79266
      C    6   -0.14651      0.99953     2.13921    0.00777     3.14651
      C    7   -0.04511      0.99953     2.03658    0.00900     3.04511
      N    8   -0.33408      0.99966     2.82393    0.01050     3.83408
      C    9    0.36177      0.99961     1.61796    0.02066     2.63823
      O   10   -0.28289      0.99988     3.27734    0.00567     4.28289
      C   11    0.05444      0.99948     1.93261    0.01347     2.94556
      C   12   -0.10693      0.99946     2.09826    0.00922     3.10693
      C   13   -0.13646      0.99935     2.12728    0.00983     3.13646
      C   14    0.06835      0.99942     1.92030    0.01193     2.93165
      N   15   -0.18124      0.99958     2.67265    0.00901     3.68124
      C   16   -0.17581      0.99965     2.16997    0.00619     3.17581
      C   17   -0.14784      0.99950     2.13968    0.00866     3.14784
      C   18   -0.15533      0.99956     2.14411    0.01166     3.15533
      S   19    0.17349      4.99946     2.80389    0.02317     7.82651
      H   20    0.09681      0.00000     0.40212    0.00107     0.40319
      H   21    0.09870      0.00000     0.40030    0.00100     0.40130
      H   22    0.09764      0.00000     0.40107    0.00129     0.40236
      H   23    0.08347      0.00000     0.41534    0.00119     0.41653
      H   24    0.09529      0.00000     0.40304    0.00167     0.40471
      H   25    0.08971      0.00000     0.40890    0.00139     0.41029
      H   26    0.19240      0.00000     0.30598    0.00162     0.30760
      H   27    0.10924      0.00000     0.38984    0.00092     0.39076
      H   28    0.09163      0.00000     0.40738    0.00099     0.40837
      H   29    0.10056      0.00000     0.39827    0.00118     0.39944
      H   30    0.10713      0.00000     0.39199    0.00088     0.39287
      H   31    0.10341      0.00000     0.39559    0.00101     0.39659
      H   32    0.09781      0.00000     0.40129    0.00090     0.40219
 =======================================================================
   * Total *   -0.00000     22.99154    47.78275    0.22571    71.00000

 Normal termination of Gaussian 16 at Sun Dec 13 17:33:24 2020.
