 Gaussian 16, Revision A.03,

 -----------------------------------------------------------
 # opt freq B3LYP/6-31G(d) empiricaldispersion=gd3bj scf=xqc
 -----------------------------------------------------------

 -------------------------------
 CID_143500415_JID_1907_neutraal
 -------------------------------
 Symbolic Z-matrix:
 Charge =  0 Multiplicity = 1

 SCF Done:  E(RB3LYP) =  -516.661002287     A.U. after   15 cycles
 SCF Done:  E(RB3LYP) =  -516.663140791     A.U. after   13 cycles
 SCF Done:  E(RB3LYP) =  -516.663207637     A.U. after   12 cycles
 SCF Done:  E(RB3LYP) =  -516.663190679     A.U. after   13 cycles
 SCF Done:  E(RB3LYP) =  -516.663475631     A.U. after   12 cycles
 SCF Done:  E(RB3LYP) =  -516.663482621     A.U. after   10 cycles
 SCF Done:  E(RB3LYP) =  -516.663484402     A.U. after    8 cycles
 SCF Done:  E(RB3LYP) =  -516.663484630     A.U. after    8 cycles
 Optimization completed.
    -- Stationary point found.
 Normal termination of Gaussian 16 at Tue Dec  8 21:40:20 2020.

 --------------------------------------------------------------------
 #N Geom=AllCheck Guess=TCheck SCRF=Check GenChk RB3LYP/6-31G(d) Freq
 --------------------------------------------------------------------

 Structure from the checkpoint file:  "JID_1907.chk"
 -------------------------------
 CID_143500415_JID_1907_neutraal
 -------------------------------
 Charge =  0 Multiplicity = 1

 SCF Done:  E(RB3LYP) =  -516.663484630     A.U. after    1 cycles

  Exact polarizability: 111.112   5.518 102.951   8.833  -3.677  64.769
 Approx polarizability: 170.704  24.153 159.844  24.746  -2.628 100.367

                      1                      2                      3
                      A                      A                      A
 Frequencies --     37.4303                90.5883               107.6909
 Red. masses --      3.6113                 3.5513                 3.5966
 Frc consts  --      0.0030                 0.0172                 0.0246
 IR Inten    --      0.5380                 1.2750                 0.1385

                      4                      5                      6
                      A                      A                      A
 Frequencies --    154.0926               177.0934               242.2002
 Red. masses --      5.8941                 3.8667                 2.4276
 Frc consts  --      0.0825                 0.0714                 0.0839
 IR Inten    --      5.8544                 4.1311                 0.9960

                      7                      8                      9
                      A                      A                      A
 Frequencies --    264.6927               270.1332               288.4001
 Red. masses --      1.1146                 1.1182                 4.3666
 Frc consts  --      0.0460                 0.0481                 0.2140
 IR Inten    --      0.0160                 0.6900                 7.3353

                     10                     11                     12
                      A                      A                      A
 Frequencies --    312.9312               389.9655               440.9055
 Red. masses --      2.9304                 2.5043                 1.8464
 Frc consts  --      0.1691                 0.2244                 0.2115
 IR Inten    --     15.4585                10.1233                 0.5840

                     13                     14                     15
                      A                      A                      A
 Frequencies --    477.0687               526.7520               624.2205
 Red. masses --      3.0693                 5.6263                 4.1696
 Frc consts  --      0.4116                 0.9198                 0.9572
 IR Inten    --      9.2146                 3.2827                 3.4957

                     16                     17                     18
                      A                      A                      A
 Frequencies --    641.3325               742.5741               766.2751
 Red. masses --      4.5944                 1.8756                 2.4272
 Frc consts  --      1.1134                 0.6093                 0.8397
 IR Inten    --     11.3526                32.8060                22.8198

                     19                     20                     21
                      A                      A                      A
 Frequencies --    814.3822               833.9200               872.9230
 Red. masses --      4.7105                 4.0873                 1.2889
 Frc consts  --      1.8407                 1.6747                 0.5786
 IR Inten    --     32.5585                 1.9537                 4.6400

                     22                     23                     24
                      A                      A                      A
 Frequencies --    915.6742               943.5395              1018.4668
 Red. masses --      4.7470                 2.0633                 1.7601
 Frc consts  --      2.3451                 1.0822                 1.0757
 IR Inten    --     16.4780                 1.6235                 0.6347

                     25                     26                     27
                      A                      A                      A
 Frequencies --   1060.6257              1064.5167              1078.6370
 Red. masses --      2.5351                 2.0994                 1.6994
 Frc consts  --      1.6803                 1.4017                 1.1649
 IR Inten    --     30.3296                 9.8766                17.7998

                     28                     29                     30
                      A                      A                      A
 Frequencies --   1092.8656              1134.7503              1159.8840
 Red. masses --      2.1456                 1.2611                 2.1786
 Frc consts  --      1.5098                 0.9567                 1.7269
 IR Inten    --     20.6195                 8.2024                39.6565

                     31                     32                     33
                      A                      A                      A
 Frequencies --   1188.2938              1199.5482              1265.7695
 Red. masses --      2.1693                 1.4740                 2.7654
 Frc consts  --      1.8047                 1.2497                 2.6105
 IR Inten    --     20.5307                 6.2707                16.4690

                     34                     35                     36
                      A                      A                      A
 Frequencies --   1313.1100              1314.0537              1379.4152
 Red. masses --      2.4474                 2.3923                 1.5636
 Frc consts  --      2.4864                 2.4338                 1.7529
 IR Inten    --      8.8292                10.2317                 3.6852

                     37                     38                     39
                      A                      A                      A
 Frequencies --   1387.5475              1439.1157              1459.7688
 Red. masses --      1.2948                 1.3250                 4.3086
 Frc consts  --      1.4688                 1.6168                 5.4095
 IR Inten    --     13.3652                 6.0231                27.8874

                     40                     41                     42
                      A                      A                      A
 Frequencies --   1469.4077              1484.1222              1501.4889
 Red. masses --      1.1616                 1.0985                 1.1523
 Frc consts  --      1.4777                 1.4256                 1.5306
 IR Inten    --      0.5204                 7.1712                 3.0995

                     43                     44                     45
                      A                      A                      A
 Frequencies --   1508.1523              1523.7853              1534.0300
 Red. masses --      1.0468                 1.0647                 1.0655
 Frc consts  --      1.4028                 1.4566                 1.4774
 IR Inten    --     11.3091                17.1533                 1.2822

                     46                     47                     48
                      A                      A                      A
 Frequencies --   1548.1696              1563.9864              1632.0497
 Red. masses --      1.0518                 4.8267                 6.5869
 Frc consts  --      1.4854                 6.9562                10.3370
 IR Inten    --     10.7358                28.2887                25.3447

                     49                     50                     51
                      A                      A                      A
 Frequencies --   1787.2240              2922.2305              2965.1405
 Red. masses --      9.4560                 1.0828                 1.0576
 Frc consts  --     17.7958                 5.4477                 5.4785
 IR Inten    --    299.6328               100.1308                42.8849

                     52                     53                     54
                      A                      A                      A
 Frequencies --   2979.8573              3063.1397              3079.8459
 Red. masses --      1.0570                 1.0596                 1.0749
 Frc consts  --      5.5297                 5.8579                 6.0070
 IR Inten    --     67.1015                21.9634                28.9468

                     55                     56                     57
                      A                      A                      A
 Frequencies --   3082.6852              3111.4941              3123.3078
 Red. masses --      1.0754                 1.1055                 1.1039
 Frc consts  --      6.0209                 6.3060                 6.3445
 IR Inten    --     52.5625                10.0931                21.6778

                     58                     59                     60
                      A                      A                      A
 Frequencies --   3127.2504              3286.7123              3310.3325
 Red. masses --      1.1038                 1.0904                 1.1070
 Frc consts  --      6.3603                 6.9401                 7.1475
 IR Inten    --     38.5514                 0.7558                 1.0922

 - Thermochemistry -
 -------------------
 Temperature   298.150 Kelvin.  Pressure   1.00000 Atm.
 Atom     1 has atomic number  6 and mass  12.00000

 Molecular mass:   153.07898 amu.
 Principal axes and moments of inertia in atomic units:
                           1         2         3
     Eigenvalues --  1160.356841994.307902793.64464
           X            0.99930  -0.03633  -0.00836
           Y            0.03626   0.99931  -0.00857
           Z            0.00867   0.00826   0.99993
 This molecule is an asymmetric top.
 Rotational symmetry number  1.
 Warning -- assumption of classical behavior for rotation
           may cause significant error
 Rotational temperatures (Kelvin)      0.07464     0.04343     0.03100
 Rotational constants (GHZ):           1.55533     0.90495     0.64602
 Zero-point vibrational energy     479077.9 (Joules/Mol)
                                  114.50236 (Kcal/Mol)
 Warning -- explicit consideration of  14 degrees of freedom as
           vibrations may cause significant error
 Vibrational temperatures:     53.85   130.34   154.94   221.70   254.80
          (Kelvin)            348.47   380.83   388.66   414.94   450.24
                              561.07   634.36   686.40   757.88   898.11
                              922.73  1068.40  1102.50  1171.71  1199.82
                             1255.94  1317.45  1357.54  1465.35  1526.00
                             1531.60  1551.92  1572.39  1632.65  1668.81
                             1709.69  1725.88  1821.16  1889.27  1890.63
                             1984.67  1996.37  2070.57  2100.28  2114.15
                             2135.32  2160.31  2169.89  2192.39  2207.13
                             2227.47  2250.23  2348.16  2571.42  4204.44
                             4266.18  4287.35  4407.17  4431.21  4435.30
                             4476.75  4493.74  4499.42  4728.85  4762.83

 Zero-point correction=                           0.182471 (Hartree/Particle)
 Thermal correction to Energy=                    0.193266
 Thermal correction to Enthalpy=                  0.194210
 Thermal correction to Gibbs Free Energy=         0.145550
 Sum of electronic and zero-point Energies=           -516.481014
 Sum of electronic and thermal Energies=              -516.470219
 Sum of electronic and thermal Enthalpies=            -516.469274
 Sum of electronic and thermal Free Energies=         -516.517935

                     E (Thermal)             CV                S
                      KCal/Mol        Cal/Mol-Kelvin    Cal/Mol-Kelvin
 Total                  121.276             39.596            102.415
 Electronic               0.000              0.000              0.000
 Translational            0.889              2.981             40.987
 Rotational               0.889              2.981             30.248
 Vibrational            119.499             33.634             31.180
 Vibration     1          0.594              1.982              5.391
 Vibration     2          0.602              1.956              3.647
 Vibration     3          0.606              1.943              3.310
 Vibration     4          0.620              1.898              2.621
 Vibration     5          0.628              1.871              2.359
 Vibration     6          0.658              1.776              1.787
 Vibration     7          0.671              1.738              1.631
 Vibration     8          0.674              1.728              1.595
 Vibration     9          0.685              1.695              1.483
 Vibration    10          0.701              1.649              1.347
 Vibration    11          0.758              1.492              1.000
 Vibration    12          0.801              1.381              0.824
 Vibration    13          0.834              1.301              0.718
 Vibration    14          0.882              1.191              0.595

                           ! Non-Optimized Parameters !
 Normal termination of Gaussian 16 at Tue Dec  8 21:45:40 2020.

 ----------------------------------------------------------------------
 # B3LYP/6-311++G(d,p) empiricaldispersion=gd3bj scf=xqc pop=npa geom=c
 heck
 ----------------------------------------------------------------------

 ---------------------------------------
 CID_143500415_JID_1907_Energie_neutraal
 ---------------------------------------
 Structure from the checkpoint file:  "JID_1907.chk"
 Charge =  0 Multiplicity = 1

 SCF Done:  E(RB3LYP) =  -516.810290324     A.U. after   15 cycles
 Normal termination of Gaussian 16 at Tue Dec  8 21:49:46 2020.

 ----------------------------------------------------------------------
 # B3LYP/6-311++G(d,p) empiricaldispersion=gd3bj scf=xqc pop=npa geom=c
 heck
 ----------------------------------------------------------------------

 -------------------------------------
 CID_143500415_JID_1907_Energie_kation
 -------------------------------------
 Structure from the checkpoint file:  "JID_1907.chk"
 Charge =  1 Multiplicity = 2

 SCF Done:  E(UB3LYP) =  -516.505509223     A.U. after   24 cycles
 Normal termination of Gaussian 16 at Tue Dec  8 21:54:45 2020.
 Gaussian 16:  ES64L-G16RevA.03 25-Dec-2016

 ----------------------------------------------------------------------
 # B3LYP/6-311++G(d,p) empiricaldispersion=gd3bj scf=xqc pop=npa geom=c
 heck
 ----------------------------------------------------------------------

 ------------------------------------
 CID_143500415_JID_1907_Energie_anion
 ------------------------------------
 Structure from the checkpoint file:  "JID_1907.chk"
 Charge = -1 Multiplicity = 2

                         Standard orientation:
 ---------------------------------------------------------------------
 Center     Atomic      Atomic             Coordinates (Angstroms)
 Number     Number       Type             X           Y           Z
 ---------------------------------------------------------------------
      1          6           0        1.759757   -1.676552   -0.636389
      2          7           0        2.186987   -0.563063    0.197146
      3          6           0        2.738063    0.532982   -0.589127
      4          6           0        1.165927   -0.133468    1.156510
      5          6           0       -0.068602    0.475102    0.558497
      6          6           0       -1.269542   -0.035297    0.113542
      7          6           0       -1.997554    1.065007   -0.466438
      8          6           0       -1.197656    2.149748   -0.340834
      9          8           0       -0.017982    1.806731    0.279134
     10          6           0       -1.731622   -1.414994    0.224295
     11          8           0       -2.803589   -1.810769   -0.200294
     12          1           0        2.609702   -2.019561   -1.235232
     13          1           0        0.934082   -1.427372   -1.327860
     14          1           0        1.434931   -2.508345   -0.001841
     15          1           0        2.025633    0.965811   -1.313121
     16          1           0        3.067803    1.334130    0.080183
     17          1           0        3.608542    0.168396   -1.144847
     18          1           0        0.879197   -1.004473    1.755066
     19          1           0        1.620380    0.599154    1.832812
     20          1           0       -2.983445    1.011985   -0.903608
     21          1           0       -1.291895    3.190322   -0.609208
     22          1           0       -1.033902   -2.111465    0.736574
 ---------------------------------------------------------------------

 SCF Done:  E(UB3LYP) =  -516.808802096     A.U. after   33 cycles
 SCF Done:  E(UB3LYP) =  -516.808802096     a.u. after    1 cycles

 The electronic state is 2-A.
 Alpha  occ. eigenvalues --  -19.04484 -18.92333 -14.18516 -10.09129 -10.07339
 Alpha  occ. eigenvalues --  -10.06852 -10.06835 -10.06775 -10.06288 -10.03931
 Alpha  occ. eigenvalues --  -10.02118  -0.97248  -0.86041  -0.80220  -0.66644
 Alpha  occ. eigenvalues --   -0.63992  -0.58879  -0.57254  -0.50017  -0.48030
 Alpha  occ. eigenvalues --   -0.43718  -0.40832  -0.37209  -0.36064  -0.35290
 Alpha  occ. eigenvalues --   -0.33493  -0.31128  -0.30827  -0.27891  -0.27537
 Alpha  occ. eigenvalues --   -0.26272  -0.26119  -0.25396  -0.24936  -0.24451
 Alpha  occ. eigenvalues --   -0.22991  -0.22589  -0.14294  -0.10638  -0.09305
 Alpha  occ. eigenvalues --   -0.08629   0.05564
 Alpha virt. eigenvalues --    0.07825   0.08961   0.09808   0.09993   0.11948
 Alpha virt. eigenvalues --    0.11969   0.12220   0.12798   0.13058   0.14373
 Alpha virt. eigenvalues --    0.15474   0.16030   0.16441   0.17265   0.17536

  Beta  occ. eigenvalues --  -19.04331 -18.91810 -14.18469 -10.09187 -10.07356
  Beta  occ. eigenvalues --  -10.06830 -10.06771 -10.06393 -10.05959 -10.03906
  Beta  occ. eigenvalues --  -10.02150  -0.96946  -0.85086  -0.80126  -0.66484
  Beta  occ. eigenvalues --   -0.63626  -0.58845  -0.57150  -0.49374  -0.47914
  Beta  occ. eigenvalues --   -0.43341  -0.40627  -0.36871  -0.35754  -0.35243
  Beta  occ. eigenvalues --   -0.33404  -0.30705  -0.30452  -0.27706  -0.27483
  Beta  occ. eigenvalues --   -0.26037  -0.25761  -0.25319  -0.24811  -0.24364
  Beta  occ. eigenvalues --   -0.22438  -0.20587  -0.13571  -0.09950  -0.08454
  Beta  occ. eigenvalues --   -0.08172
  Beta virt. eigenvalues --    0.07920   0.08905   0.10033   0.10151   0.11834
  Beta virt. eigenvalues --    0.12007   0.12293   0.12568   0.13071   0.13419
  Beta virt. eigenvalues --    0.14478   0.15480   0.16164   0.16445   0.17269

 Mulliken charges and spin densities:
               1          2
     1  C   -0.259960  -0.176029
     2  N   -0.084098   0.249280
     3  C    0.142955  -0.549797
     4  C    0.872816  -1.703100
     5  C   -1.110400   1.373306
     6  C    0.655722  -0.194146
     7  C    0.314255  -0.029412
     8  C   -0.323537   0.012479
     9  O   -0.024767   0.037795
    10  C   -0.623718   0.221394
    11  O   -0.399657   0.167057
    12  H    0.110473  -0.009390
    13  H    0.098025   0.036925
    14  H    0.062447   0.090601
    15  H    0.078853   0.050973
    16  H   -0.175010   0.316451
    17  H   -0.093508   0.206491
    18  H   -0.183041   0.356589
    19  H   -0.271042   0.463294
    20  H    0.152830   0.005777
    21  H    0.041135   0.086640
    22  H    0.019229  -0.013177
 Sum of Mulliken charges =  -1.00000   1.00000

 Dipole moment (field-independent basis, Debye):
    X=              1.8671    Y=              2.8042    Z=             -2.0178  Tot=              3.9270
 Quadrupole moment (field-independent basis, Debye-Ang):
   XX=           -111.0857   YY=            -87.6749   ZZ=            -82.8575
   XY=            -13.4176   XZ=             -5.9153   YZ=             -0.9870

 Summary of Natural Population Analysis:

                                       Natural Population
                Natural  -----------------------------------------------
    Atom  No    Charge         Core      Valence    Rydberg      Total
 -----------------------------------------------------------------------
      C    1   -0.17918      0.99964     2.17089    0.00866     3.17918
      N    2   -0.27244      0.99974     2.75707    0.01563     3.77244
      C    3   -0.17784      0.99964     2.16909    0.00911     3.17784
      C    4   -0.11311      0.99957     2.09858    0.01497     3.11311
      C    5    0.23847      0.99943     1.74759    0.01451     2.76153
      C    6   -0.12438      0.99944     2.11341    0.01153     3.12438
      C    7   -0.12909      0.99952     2.11999    0.00958     3.12909
      C    8    0.02628      0.99951     1.96018    0.01403     2.97372
      O    9   -0.23186      0.99986     3.22359    0.00842     4.23186
      C   10    0.23898      0.99967     1.74129    0.02006     2.76102
      O   11   -0.25343      0.99988     3.24662    0.00692     4.25343
      H   12    0.08778      0.00000     0.41130    0.00092     0.41222
      H   13    0.08762      0.00000     0.41102    0.00136     0.41238
      H   14    0.09542      0.00000     0.40349    0.00110     0.40458
      H   15    0.08400      0.00000     0.41453    0.00146     0.41600
      H   16    0.09613      0.00000     0.40261    0.00125     0.40387
      H   17    0.08767      0.00000     0.41130    0.00103     0.41233
      H   18    0.10546      0.00000     0.39267    0.00187     0.39454
      H   19    0.10328      0.00000     0.39475    0.00198     0.39672
      H   20    0.10890      0.00000     0.39000    0.00110     0.39110
      H   21    0.08764      0.00000     0.41146    0.00091     0.41236
      H   22    0.03370      0.00000     0.46358    0.00272     0.46630
 =======================================================================
   * Total *    0.00000     10.99591    29.85499    0.14910    41.00000

 Normal termination of Gaussian 16 at Tue Dec  8 22:00:58 2020.
