 Gaussian 16, Revision A.03,

 -----------------------------------------------------------
 # opt freq B3LYP/6-31G(d) empiricaldispersion=gd3bj scf=xqc
 -----------------------------------------------------------

 -------------------------------
 CID_115589126_JID_6521_neutraal
 -------------------------------
 Symbolic Z-matrix:
 Charge =  0 Multiplicity = 1

 SCF Done:  E(RB3LYP) =  -730.540334101     A.U. after   14 cycles
 SCF Done:  E(RB3LYP) =  -730.548387214     A.U. after   12 cycles
 SCF Done:  E(RB3LYP) =  -730.548506667     A.U. after   12 cycles
 SCF Done:  E(RB3LYP) =  -730.549243219     A.U. after   12 cycles
 SCF Done:  E(RB3LYP) =  -730.550221998     A.U. after   12 cycles
 SCF Done:  E(RB3LYP) =  -730.551195410     A.U. after   11 cycles
 SCF Done:  E(RB3LYP) =  -730.551411072     A.U. after   12 cycles
 SCF Done:  E(RB3LYP) =  -730.552114864     A.U. after   12 cycles
 SCF Done:  E(RB3LYP) =  -730.552342804     A.U. after   10 cycles
 SCF Done:  E(RB3LYP) =  -730.552519946     A.U. after   11 cycles
 SCF Done:  E(RB3LYP) =  -730.553110971     A.U. after   10 cycles
 SCF Done:  E(RB3LYP) =  -730.553113374     A.U. after    9 cycles
 SCF Done:  E(RB3LYP) =  -730.553113658     A.U. after    7 cycles
 SCF Done:  E(RB3LYP) =  -730.553113731     A.U. after    7 cycles
 SCF Done:  E(RB3LYP) =  -730.553113757     A.U. after    7 cycles
 SCF Done:  E(RB3LYP) =  -730.553113751     A.U. after    6 cycles
 Optimization completed.
    -- Stationary point found.
 Normal termination of Gaussian 16 at Thu Dec 10 23:43:13 2020.

 --------------------------------------------------------------------
 #N Geom=AllCheck Guess=TCheck SCRF=Check GenChk RB3LYP/6-31G(d) Freq
 --------------------------------------------------------------------

 Structure from the checkpoint file:  "JID_6521.chk"
 -------------------------------
 CID_115589126_JID_6521_neutraal
 -------------------------------
 Charge =  0 Multiplicity = 1

 SCF Done:  E(RB3LYP) =  -730.553113751     A.U. after    1 cycles

  Exact polarizability: 151.468   0.386 141.785  -8.366  -1.645 121.625
 Approx polarizability: 186.704   4.381 202.526 -13.561  -4.266 191.183

                      1                      2                      3
                      A                      A                      A
 Frequencies --     19.8460                35.4286                59.7866
 Red. masses --      4.3110                 3.0293                 2.9012
 Frc consts  --      0.0010                 0.0022                 0.0061
 IR Inten    --      0.2184                 0.2050                 0.9857

                      4                      5                      6
                      A                      A                      A
 Frequencies --     68.1539                85.0975                97.3944
 Red. masses --      2.6353                 3.2266                 3.3147
 Frc consts  --      0.0072                 0.0138                 0.0185
 IR Inten    --      1.4590                 0.4607                 1.0085

                      7                      8                      9
                      A                      A                      A
 Frequencies --    119.7644               134.7982               200.7254
 Red. masses --      3.3405                 4.6554                 2.4098
 Frc consts  --      0.0282                 0.0498                 0.0572
 IR Inten    --      1.0893                 1.6155                 2.8724

                     10                     11                     12
                      A                      A                      A
 Frequencies --    206.7138               231.5582               241.4032
 Red. masses --      2.7021                 2.6035                 3.3828
 Frc consts  --      0.0680                 0.0822                 0.1161
 IR Inten    --      2.9980                 4.2238                 6.7616

                     13                     14                     15
                      A                      A                      A
 Frequencies --    278.4129               310.0815               337.2606
 Red. masses --      2.3650                 2.5287                 2.4853
 Frc consts  --      0.1080                 0.1433                 0.1666
 IR Inten    --      3.6339                 2.0708                 1.1881

                     16                     17                     18
                      A                      A                      A
 Frequencies --    384.3151               431.6836               453.0735
 Red. masses --      2.3667                 2.6837                 4.1629
 Frc consts  --      0.2060                 0.2947                 0.5035
 IR Inten    --      3.7342                 7.7645                 6.1895

                     19                     20                     21
                      A                      A                      A
 Frequencies --    533.7998               578.3599               601.1920
 Red. masses --      2.9870                 2.2990                 2.5076
 Frc consts  --      0.5015                 0.4531                 0.5340
 IR Inten    --      5.6394                 3.2610                18.3711

                     22                     23                     24
                      A                      A                      A
 Frequencies --    607.2956               611.4928               737.2717
 Red. masses --      2.5302                 2.8752                 3.0087
 Frc consts  --      0.5498                 0.6334                 0.9636
 IR Inten    --      1.1723                29.2290                19.6162

                     25                     26                     27
                      A                      A                      A
 Frequencies --    754.4599               771.4866               776.6398
 Red. masses --      2.5494                 1.7936                 1.5793
 Frc consts  --      0.8550                 0.6290                 0.5613
 IR Inten    --     20.2953                 0.3995                 8.0373

                     28                     29                     30
                      A                      A                      A
 Frequencies --    806.1846               837.7533               863.4358
 Red. masses --      3.7637                 1.8695                 2.0854
 Frc consts  --      1.4412                 0.7730                 0.9160
 IR Inten    --     97.9533                 4.4742                 0.8995

                     31                     32                     33
                      A                      A                      A
 Frequencies --    872.4598               892.2662               898.1501
 Red. masses --      1.7622                 2.4708                 2.0365
 Frc consts  --      0.7903                 1.1590                 0.9679
 IR Inten    --      3.9873                 2.9748                 4.2169

                     34                     35                     36
                      A                      A                      A
 Frequencies --    906.8511               922.1272               924.6296
 Red. masses --      2.5175                 2.3122                 2.1948
 Frc consts  --      1.2198                 1.1584                 1.1056
 IR Inten    --      0.5799                 1.6821                 6.1234

                     37                     38                     39
                      A                      A                      A
 Frequencies --    931.2372               941.5143               961.0465
 Red. masses --      2.5832                 1.5412                 1.8568
 Frc consts  --      1.3199                 0.8049                 1.0104
 IR Inten    --      3.2548                 4.7482                14.3343

                     40                     41                     42
                      A                      A                      A
 Frequencies --    994.3355              1007.1219              1034.6635
 Red. masses --      1.6447                 1.7767                 1.8313
 Frc consts  --      0.9581                 1.0618                 1.1551
 IR Inten    --      2.6058                19.7634                 6.6573

                     43                     44                     45
                      A                      A                      A
 Frequencies --   1037.4914              1063.5744              1070.0726
 Red. masses --      1.9663                 2.2472                 1.8270
 Frc consts  --      1.2470                 1.4977                 1.2326
 IR Inten    --     13.2941                 1.7324                 0.6063

                     46                     47                     48
                      A                      A                      A
 Frequencies --   1101.4115              1144.9739              1152.1948
 Red. masses --      1.6248                 1.6973                 4.6475
 Frc consts  --      1.1613                 1.3110                 3.6352
 IR Inten    --      4.3712                29.3264               106.7200

                     49                     50                     51
                      A                      A                      A
 Frequencies --   1161.7459              1171.3882              1200.0898
 Red. masses --      1.8433                 3.1210                 2.9941
 Frc consts  --      1.4658                 2.5232                 2.5407
 IR Inten    --      7.6304                19.8382                 8.0932

                     52                     53                     54
                      A                      A                      A
 Frequencies --   1208.3145              1210.1122              1221.5321
 Red. masses --      1.4205                 1.6021                 1.5342
 Frc consts  --      1.2219                 1.3822                 1.3488
 IR Inten    --      8.4466                 4.1581                23.8254

                     55                     56                     57
                      A                      A                      A
 Frequencies --   1237.5469              1239.3483              1270.2465
 Red. masses --      1.8727                 1.3443                 1.2133
 Frc consts  --      1.6898                 1.2165                 1.1534
 IR Inten    --     32.4746                13.3986                 9.5486

                     58                     59                     60
                      A                      A                      A
 Frequencies --   1278.6344              1287.3145              1295.3694
 Red. masses --      1.2109                 1.4937                 1.3240
 Frc consts  --      1.1664                 1.4584                 1.3090
 IR Inten    --      6.7336                 2.6322                41.3479

                     61                     62                     63
                      A                      A                      A
 Frequencies --   1303.5192              1311.0653              1331.1410
 Red. masses --      1.1386                 1.2170                 1.3271
 Frc consts  --      1.1399                 1.2325                 1.3855
 IR Inten    --      5.2981                 4.8985                 0.2194

                     64                     65                     66
                      A                      A                      A
 Frequencies --   1338.3409              1354.1232              1367.0596
 Red. masses --      1.3349                 1.2668                 1.3434
 Frc consts  --      1.4088                 1.3686                 1.4792
 IR Inten    --      0.4779                 2.4517                18.2829

                     67                     68                     69
                      A                      A                      A
 Frequencies --   1368.6303              1375.8167              1376.5327
 Red. masses --      1.3275                 1.4837                 1.5193
 Frc consts  --      1.4651                 1.6547                 1.6962
 IR Inten    --      1.5094                 4.5996                39.9320

                     70                     71                     72
                      A                      A                      A
 Frequencies --   1389.8773              1398.2312              1402.5173
 Red. masses --      1.4081                 1.4835                 1.4703
 Frc consts  --      1.6027                 1.7088                 1.7040
 IR Inten    --     49.6737                22.9455                88.2727

                     73                     74                     75
                      A                      A                      A
 Frequencies --   1450.3565              1450.8401              1494.3413
 Red. masses --      1.4338                 2.1248                 1.3962
 Frc consts  --      1.7770                 2.6352                 1.8370
 IR Inten    --     21.5670               193.9856                 8.2209

                     76                     77                     78
                      A                      A                      A
 Frequencies --   1504.5140              1510.9951              1518.7929
 Red. masses --      1.0870                 1.0935                 1.0891
 Frc consts  --      1.4497                 1.4709                 1.4802
 IR Inten    --      1.4623                 1.1511                 3.3345

                     79                     80                     81
                      A                      A                      A
 Frequencies --   1521.1407              1526.3062              1531.6949
 Red. masses --      1.0879                 1.0923                 1.1266
 Frc consts  --      1.4832                 1.4993                 1.5573
 IR Inten    --      2.9625                 9.0666                31.4653

                     82                     83                     84
                      A                      A                      A
 Frequencies --   1542.8069              1547.5432              1550.4142
 Red. masses --      1.1064                 1.0884                 1.0929
 Frc consts  --      1.5516                 1.5358                 1.5478
 IR Inten    --     15.5870                 0.6648                13.2395

                     85                     86                     87
                      A                      A                      A
 Frequencies --   1564.6925              1759.9707              2980.8111
 Red. masses --      1.1067                 6.4001                 1.0700
 Frc consts  --      1.5964                11.6802                 5.6012
 IR Inten    --      7.6529               334.7722                58.6402

                     88                     89                     90
                      A                      A                      A
 Frequencies --   3007.2929              3030.0037              3048.4808
 Red. masses --      1.0842                 1.0739                 1.0578
 Frc consts  --      5.7773                 5.8092                 5.7918
 IR Inten    --     66.0371                43.7371                19.2550

                     91                     92                     93
                      A                      A                      A
 Frequencies --   3050.1761              3053.7726              3057.5757
 Red. masses --      1.0681                 1.0783                 1.0799
 Frc consts  --      5.8546                 5.9246                 5.9482
 IR Inten    --     22.3551                52.9461                14.3348

                     94                     95                     96
                      A                      A                      A
 Frequencies --   3060.6920              3065.5469              3069.7925
 Red. masses --      1.0725                 1.0632                 1.0678
 Frc consts  --      5.9194                 5.8868                 5.9285
 IR Inten    --     19.3319                26.1173                71.9260

                     97                     98                     99
                      A                      A                      A
 Frequencies --   3077.5669              3080.6282              3086.5161
 Red. masses --      1.0627                 1.0700                 1.0929
 Frc consts  --      5.9300                 5.9831                 6.1344
 IR Inten    --     31.5276                39.2550                52.7231

                    100                    101                    102
                      A                      A                      A
 Frequencies --   3112.3417              3115.4595              3117.1163
 Red. masses --      1.0980                 1.0963                 1.0985
 Frc consts  --      6.2667                 6.2693                 6.2885
 IR Inten    --     26.0808                17.9107                33.9551

                    103                    104                    105
                      A                      A                      A
 Frequencies --   3121.0952              3123.6474              3125.0649
 Red. masses --      1.1047                 1.1033                 1.1050
 Frc consts  --      6.3403                 6.3426                 6.3580
 IR Inten    --     29.4809                27.8927                50.1316

                    106                    107                    108
                      A                      A                      A
 Frequencies --   3144.5935              3167.1241              3587.4415
 Red. masses --      1.0988                 1.0919                 1.0748
 Frc consts  --      6.4015                 6.4532                 8.1501
 IR Inten    --     25.8244                 4.1694                22.2388

 - Thermochemistry -
 -------------------
 Temperature   298.150 Kelvin.  Pressure   1.00000 Atm.
 Atom     1 has atomic number  6 and mass  12.00000

 Molecular mass:   226.16813 amu.
 Principal axes and moments of inertia in atomic units:
                           1         2         3
     Eigenvalues --  2038.770435056.999945729.49235
           X            0.99996   0.00606  -0.00691
           Y           -0.00605   0.99998   0.00161
           Z            0.00692  -0.00157   0.99997
 This molecule is an asymmetric top.
 Rotational symmetry number  1.
 Warning -- assumption of classical behavior for rotation
           may cause significant error
 Rotational temperatures (Kelvin)      0.04248     0.01713     0.01512
 Rotational constants (GHZ):           0.88521     0.35688     0.31499
 Zero-point vibrational energy     902502.5 (Joules/Mol)
                                  215.70328 (Kcal/Mol)
 Warning -- explicit consideration of  23 degrees of freedom as
           vibrations may cause significant error
 Vibrational temperatures:     28.55    50.97    86.02    98.06   122.44
          (Kelvin)            140.13   172.31   193.94   288.80   297.42
                              333.16   347.33   400.57   446.14   485.24
                              552.94   621.10   651.87   768.02   832.13
                              864.98   873.76   879.80  1060.77  1085.50
                             1110.00  1117.41  1159.92  1205.34  1242.29
                             1255.28  1283.77  1292.24  1304.76  1326.74
                             1330.34  1339.84  1354.63  1382.73  1430.63
                             1449.02  1488.65  1492.72  1530.25  1539.60
                             1584.69  1647.36  1657.75  1671.49  1685.37
                             1726.66  1738.50  1741.08  1757.51  1780.55
                             1783.15  1827.60  1839.67  1852.16  1863.75
                             1875.47  1886.33  1915.21  1925.57  1948.28
                             1966.89  1969.15  1979.49  1980.52  1999.72
                             2011.74  2017.91  2086.74  2087.44  2150.02
                             2164.66  2173.98  2185.20  2188.58  2196.01
                             2203.77  2219.76  2226.57  2230.70  2251.24
                             2532.21  4288.72  4326.82  4359.50  4386.08
                             4388.52  4393.70  4399.17  4403.65  4410.64
                             4416.75  4427.93  4432.34  4440.81  4477.97
                             4482.45  4484.84  4490.56  4494.23  4496.27
                             4524.37  4556.79  5161.53

 Zero-point correction=                           0.343745 (Hartree/Particle)
 Thermal correction to Energy=                    0.359522
 Thermal correction to Enthalpy=                  0.360467
 Thermal correction to Gibbs Free Energy=         0.298745
 Sum of electronic and zero-point Energies=           -730.209369
 Sum of electronic and thermal Energies=              -730.193591
 Sum of electronic and thermal Enthalpies=            -730.192647
 Sum of electronic and thermal Free Energies=         -730.254369

                     E (Thermal)             CV                S
                      KCal/Mol        Cal/Mol-Kelvin    Cal/Mol-Kelvin
 Total                  225.604             59.845            129.904
 Electronic               0.000              0.000              0.000
 Translational            0.889              2.981             42.151
 Rotational               0.889              2.981             32.446
 Vibrational            223.826             53.884             55.307
 Vibration     1          0.593              1.986              6.650
 Vibration     2          0.594              1.982              5.500
 Vibration     3          0.597              1.973              4.464
 Vibration     4          0.598              1.969              4.206
 Vibration     5          0.601              1.960              3.770
 Vibration     6          0.603              1.951              3.506
 Vibration     7          0.609              1.933              3.104
 Vibration     8          0.613              1.919              2.876
 Vibration     9          0.638              1.839              2.126
 Vibration    10          0.641              1.830              2.073
 Vibration    11          0.653              1.793              1.867
 Vibration    12          0.658              1.777              1.793
 Vibration    13          0.679              1.713              1.543
 Vibration    14          0.699              1.655              1.362
 Vibration    15          0.718              1.601              1.225
 Vibration    16          0.753              1.504              1.022
 Vibration    17          0.793              1.401              0.853
 Vibration    18          0.812              1.354              0.787
 Vibration    19          0.889              1.175              0.579
 Vibration    20          0.935              1.078              0.488
 Vibration    21          0.959              1.029              0.448
 Vibration    22          0.966              1.016              0.437
 Vibration    23          0.971              1.008              0.430

 Optimization completed.
    -- Stationary point found.
 Normal termination of Gaussian 16 at Thu Dec 10 23:57:50 2020.

 ----------------------------------------------------------------------
 # B3LYP/6-311++G(d,p) empiricaldispersion=gd3bj scf=xqc pop=npa geom=c
 heck
 ----------------------------------------------------------------------

 ---------------------------------------
 CID_115589126_JID_6521_Energie_neutraal
 ---------------------------------------
 Structure from the checkpoint file:  "JID_6521.chk"
 Charge =  0 Multiplicity = 1

 SCF Done:  E(RB3LYP) =  -730.760191464     A.U. after   14 cycles
 Normal termination of Gaussian 16 at Fri Dec 11 00:04:10 2020.

 ----------------------------------------------------------------------
 # B3LYP/6-311++G(d,p) empiricaldispersion=gd3bj scf=xqc pop=npa geom=c
 heck
 ----------------------------------------------------------------------

 -------------------------------------
 CID_115589126_JID_6521_Energie_kation
 -------------------------------------
 Structure from the checkpoint file:  "JID_6521.chk"
 Charge =  1 Multiplicity = 2

 SCF Done:  E(UB3LYP) =  -730.453688431     A.U. after   30 cycles
 Normal termination of Gaussian 16 at Fri Dec 11 00:22:40 2020.
 Gaussian 16:  ES64L-G16RevA.03 25-Dec-2016

 ----------------------------------------------------------------------
 # B3LYP/6-311++G(d,p) empiricaldispersion=gd3bj scf=xqc pop=npa geom=c
 heck
 ----------------------------------------------------------------------

 ------------------------------------
 CID_115589126_JID_6521_Energie_anion
 ------------------------------------
 Structure from the checkpoint file:  "JID_6521.chk"
 Charge = -1 Multiplicity = 2

                         Standard orientation:
 ---------------------------------------------------------------------
 Center     Atomic      Atomic             Coordinates (Angstroms)
 Number     Number       Type             X           Y           Z
 ---------------------------------------------------------------------
      1          6           0       -2.138486   -1.942204   -0.061116
      2          6           0       -3.146048   -1.143026    0.798094
      3          6           0       -3.745704   -0.118465   -0.178395
      4          6           0       -2.536937    0.311163   -1.010985
      5          6           0       -1.774234   -1.010882   -1.253176
      6          8           0       -1.800522    1.221589   -0.187231
      7          6           0       -0.691848    1.837085   -0.800300
      8          6           0        0.177607    2.421297    0.311554
      9          7           0        0.524179    1.457996    1.365152
     10          6           0        0.821010    0.115173    1.122365
     11          8           0        0.347594   -0.769004    1.836425
     12          7           0        1.686867   -0.150976    0.081799
     13          6           0        2.707880    0.803541   -0.386425
     14          6           0        3.835652   -0.082884   -0.949828
     15          6           0        3.658152   -1.417646   -0.212992
     16          6           0        2.135997   -1.539844   -0.109492
     17          1           0       -2.591893   -2.868506   -0.432021
     18          1           0       -1.256953   -2.209871    0.524276
     19          1           0       -3.903786   -1.778404    1.267855
     20          1           0       -2.605682   -0.618723    1.591767
     21          1           0       -4.225142    0.737041    0.307105
     22          1           0       -4.482040   -0.597513   -0.837077
     23          1           0       -2.812624    0.817367   -1.948737
     24          1           0       -0.696479   -0.844539   -1.333298
     25          1           0       -2.100554   -1.443542   -2.206278
     26          1           0       -0.108859    1.113994   -1.385338
     27          1           0       -1.008757    2.642108   -1.485843
     28          1           0        1.074835    2.871427   -0.124525
     29          1           0       -0.368512    3.226993    0.810455
     30          1           0       -0.168635    1.458076    2.104448
     31          1           0        3.049079    1.422413    0.451732
     32          1           0        2.314165    1.473183   -1.158899
     33          1           0        3.691023   -0.229755   -2.026594
     34          1           0        4.821084    0.369699   -0.806509
     35          1           0        4.119453   -2.261082   -0.735079
     36          1           0        4.092493   -1.358678    0.792115
     37          1           0        1.708566   -1.948513   -1.035584
     38          1           0        1.787078   -2.142848    0.727998
 ---------------------------------------------------------------------

 SCF Done:  E(UB3LYP) =  -730.747905223     A.U. after   31 cycles

 The electronic state is 2-A.
 Alpha  occ. eigenvalues --  -19.02572 -18.97966 -14.23459 -14.22691 -10.18955
 Alpha  occ. eigenvalues --  -10.12229 -10.11753 -10.11091 -10.10461 -10.09858
 Alpha  occ. eigenvalues --  -10.07455 -10.07307 -10.06978 -10.06379 -10.06351
 Alpha  occ. eigenvalues --  -10.06021  -0.94787  -0.94002  -0.84301  -0.81354
 Alpha  occ. eigenvalues --   -0.73382  -0.69021  -0.65292  -0.63847  -0.61376
 Alpha  occ. eigenvalues --   -0.60017  -0.55438  -0.52570  -0.49758  -0.47392
 Alpha  occ. eigenvalues --   -0.46825  -0.45825  -0.42383  -0.40752  -0.40428
 Alpha  occ. eigenvalues --   -0.39569  -0.39071  -0.36343  -0.35776  -0.34286
 Alpha  occ. eigenvalues --   -0.33718  -0.33206  -0.32744  -0.31745  -0.30129
 Alpha  occ. eigenvalues --   -0.29354  -0.28673  -0.27360  -0.26664  -0.25970
 Alpha  occ. eigenvalues --   -0.25709  -0.25236  -0.24776  -0.24034  -0.23884
 Alpha  occ. eigenvalues --   -0.23702  -0.22121  -0.21617  -0.17668  -0.16279
 Alpha  occ. eigenvalues --   -0.15132  -0.14275   0.04254
 Alpha virt. eigenvalues --    0.06205   0.06755   0.07525   0.08175   0.08526
 Alpha virt. eigenvalues --    0.08816   0.09342   0.09758   0.10260   0.10856
 Alpha virt. eigenvalues --    0.11332   0.11469   0.11849   0.12521   0.12910

  Beta  occ. eigenvalues --  -19.02564 -18.97964 -14.23461 -14.22690 -10.18954
  Beta  occ. eigenvalues --  -10.12219 -10.11728 -10.11074 -10.10432 -10.09845
  Beta  occ. eigenvalues --  -10.07436 -10.07269 -10.06970 -10.06366 -10.06350
  Beta  occ. eigenvalues --  -10.06018  -0.94780  -0.93991  -0.84291  -0.81344
  Beta  occ. eigenvalues --   -0.73366  -0.68988  -0.65262  -0.63797  -0.61355
  Beta  occ. eigenvalues --   -0.59995  -0.55400  -0.52524  -0.49672  -0.47369
  Beta  occ. eigenvalues --   -0.46798  -0.45784  -0.42356  -0.40728  -0.40395
  Beta  occ. eigenvalues --   -0.39538  -0.39037  -0.36320  -0.35755  -0.34259
  Beta  occ. eigenvalues --   -0.33685  -0.33172  -0.32716  -0.31724  -0.30105
  Beta  occ. eigenvalues --   -0.29325  -0.28651  -0.27337  -0.26636  -0.25949
  Beta  occ. eigenvalues --   -0.25660  -0.25194  -0.24750  -0.24022  -0.23870
  Beta  occ. eigenvalues --   -0.23658  -0.22110  -0.21575  -0.17660  -0.16256
  Beta  occ. eigenvalues --   -0.15120  -0.14264
  Beta virt. eigenvalues --    0.06339   0.07015   0.07418   0.08050   0.08767
  Beta virt. eigenvalues --    0.08863   0.09151   0.09754   0.10053   0.10634
  Beta virt. eigenvalues --    0.10920   0.11546   0.11862   0.12302   0.12679

 Mulliken charges and spin densities:
               1          2
     1  C   -0.196871  -0.174592
     2  C   -0.175399  -0.046839
     3  C   -0.452080  -0.165894
     4  C    0.180785  -0.220521
     5  C    0.254572  -0.361508
     6  O    0.034409   0.005421
     7  C    0.031409  -0.195461
     8  C    0.546106  -0.905589
     9  N   -0.150663   0.106797
    10  C   -0.413438  -0.136990
    11  O   -0.316795   0.011201
    12  N    0.000193   0.249920
    13  C    0.080490  -0.198520
    14  C    1.325898  -1.859370
    15  C   -0.454334   0.059893
    16  C    0.268989  -0.386221
    17  H    0.032631   0.112198
    18  H    0.118440   0.039097
    19  H    0.098791   0.052563
    20  H    0.191593  -0.016279
    21  H    0.065660   0.090585
    22  H    0.053279   0.063843
    23  H   -0.077945   0.252229
    24  H   -0.242876   0.304625
    25  H   -0.341632   0.529011
    26  H    0.119187   0.046996
    27  H   -0.549366   0.713051
    28  H   -0.228016   0.417664
    29  H   -0.063629   0.243685
    30  H    0.265833   0.026105
    31  H   -0.030576   0.220332
    32  H   -0.221821   0.376241
    33  H   -0.267823   0.427759
    34  H   -0.554866   0.733163
    35  H   -0.284862   0.462827
    36  H    0.128307   0.010065
    37  H    0.094250   0.057901
    38  H    0.132168   0.054612
 Sum of Mulliken charges =  -1.00000   1.00000

 Dipole moment (field-independent basis, Debye):
    X=             -4.5007    Y=             -1.5193    Z=              4.0795  Tot=              6.2615
 Quadrupole moment (field-independent basis, Debye-Ang):
   XX=           -170.5558   YY=           -143.6275   ZZ=           -143.8787
   XY=             -2.9782   XZ=              5.3956   YZ=              5.3771

 Summary of Natural Population Analysis:

                                       Natural Population
                Natural  -----------------------------------------------
    Atom  No    Charge         Core      Valence    Rydberg      Total
 -----------------------------------------------------------------------
      C    1   -0.19780      0.99964     2.19022    0.00794     3.19780
      C    2   -0.19400      0.99964     2.18755    0.00681     3.19400
      C    3   -0.19735      0.99961     2.18890    0.00884     3.19735
      C    4    0.06828      0.99955     1.91815    0.01402     2.93172
      C    5   -0.20820      0.99962     2.20034    0.00824     3.20820
      O    6   -0.31303      0.99987     3.30224    0.01092     4.31303
      C    7   -0.01750      0.99957     2.00612    0.01180     3.01750
      C    8   -0.09709      0.99961     2.08479    0.01269     3.09709
      N    9   -0.33363      0.99969     2.82447    0.00947     3.83363
      C   10    0.41263      0.99966     1.56250    0.02521     2.58737
      O   11   -0.34449      0.99988     3.34001    0.00460     4.34449
      N   12   -0.27469      0.99965     2.76476    0.01028     3.77469
      C   13   -0.08449      0.99962     2.07390    0.01097     3.08449
      C   14   -0.19340      0.99964     2.18542    0.00834     3.19340
      C   15   -0.19494      0.99963     2.18716    0.00815     3.19494
      C   16   -0.08312      0.99962     2.07343    0.01007     3.08312
      H   17    0.09098      0.00000     0.40807    0.00095     0.40902
      H   18    0.11199      0.00000     0.38690    0.00111     0.38801
      H   19    0.09380      0.00000     0.40532    0.00088     0.40620
      H   20    0.10542      0.00000     0.39321    0.00137     0.39458
      H   21    0.10293      0.00000     0.39609    0.00099     0.39707
      H   22    0.09534      0.00000     0.40371    0.00095     0.40466
      H   23    0.08444      0.00000     0.41420    0.00136     0.41556
      H   24    0.10649      0.00000     0.39190    0.00161     0.39351
      H   25    0.09897      0.00000     0.39972    0.00130     0.40103
      H   26    0.08642      0.00000     0.41093    0.00265     0.41358
      H   27    0.08376      0.00000     0.41433    0.00191     0.41624
      H   28    0.09876      0.00000     0.39971    0.00153     0.40124
      H   29    0.09767      0.00000     0.40120    0.00113     0.40233
      H   30    0.19249      0.00000     0.30537    0.00214     0.30751
      H   31    0.09743      0.00000     0.40100    0.00157     0.40257
      H   32    0.09785      0.00000     0.39991    0.00224     0.40215
      H   33    0.10039      0.00000     0.39716    0.00245     0.39961
      H   34    0.10492      0.00000     0.39330    0.00178     0.39508
      H   35    0.10311      0.00000     0.39581    0.00108     0.39689
      H   36    0.09543      0.00000     0.40343    0.00114     0.40457
      H   37    0.09121      0.00000     0.40745    0.00134     0.40879
      H   38    0.11301      0.00000     0.38577    0.00122     0.38699
 =======================================================================
   * Total *   -0.00000     15.99448    45.80447    0.20105    62.00000

 Normal termination of Gaussian 16 at Fri Dec 11 00:41:53 2020.
