 Gaussian 16, Revision A.03,

 -----------------------------------------------------------
 # opt freq B3LYP/6-31G(d) empiricaldispersion=gd3bj scf=xqc
 -----------------------------------------------------------

 -----------------------------
 CID_20521756_JID_997_neutraal
 -----------------------------
 Symbolic Z-matrix:
 Charge =  0 Multiplicity = 1

 SCF Done:  E(RB3LYP) =  -823.791578576     A.U. after   15 cycles
 SCF Done:  E(RB3LYP) =  -823.794133146     A.U. after   14 cycles
 SCF Done:  E(RB3LYP) =  -823.793153822     A.U. after   14 cycles
 SCF Done:  E(RB3LYP) =  -823.796470344     A.U. after   12 cycles
 SCF Done:  E(RB3LYP) =  -823.796451949     A.U. after   13 cycles
 SCF Done:  E(RB3LYP) =  -823.797392331     A.U. after   13 cycles
 SCF Done:  E(RB3LYP) =  -823.797724521     A.U. after   12 cycles
 SCF Done:  E(RB3LYP) =  -823.797774217     A.U. after   11 cycles
 SCF Done:  E(RB3LYP) =  -823.797782512     A.U. after   10 cycles
 SCF Done:  E(RB3LYP) =  -823.797786101     A.U. after   10 cycles
 SCF Done:  E(RB3LYP) =  -823.797789534     A.U. after   11 cycles
 SCF Done:  E(RB3LYP) =  -823.797791635     A.U. after   11 cycles
 SCF Done:  E(RB3LYP) =  -823.797792887     A.U. after   10 cycles
 SCF Done:  E(RB3LYP) =  -823.797792976     A.U. after    8 cycles
 Optimization completed.
    -- Stationary point found.
 Normal termination of Gaussian 16 at Tue Dec  8 13:37:54 2020.

 --------------------------------------------------------------------
 #N Geom=AllCheck Guess=TCheck SCRF=Check GenChk RB3LYP/6-31G(d) Freq
 --------------------------------------------------------------------

 Structure from the checkpoint file:  "JID_997.chk"
 -----------------------------
 CID_20521756_JID_997_neutraal
 -----------------------------
 Charge =  0 Multiplicity = 1

 SCF Done:  E(RB3LYP) =  -823.797792976     A.U. after    1 cycles

  Exact polarizability: 116.368  -0.799  94.271   1.272   1.130  78.780
 Approx polarizability: 152.341   3.139 150.328   4.641   8.686 121.596

                      1                      2                      3
                      A                      A                      A
 Frequencies --     29.1166                58.0904                69.7053
 Red. masses --      3.8492                 3.1789                 3.2440
 Frc consts  --      0.0019                 0.0063                 0.0093
 IR Inten    --      0.4662                 0.1891                 6.4884

                      4                      5                      6
                      A                      A                      A
 Frequencies --     88.9260               149.1096               165.1795
 Red. masses --      3.9840                 2.5370                 3.3060
 Frc consts  --      0.0186                 0.0332                 0.0531
 IR Inten    --      4.6327                 1.3013                 4.1284

                      7                      8                      9
                      A                      A                      A
 Frequencies --    184.9290               208.6096               229.6992
 Red. masses --      3.4341                 2.7808                 2.2449
 Frc consts  --      0.0692                 0.0713                 0.0698
 IR Inten    --     10.7298                 2.2316                 2.3912

                     10                     11                     12
                      A                      A                      A
 Frequencies --    264.7778               277.0112               332.7185
 Red. masses --      1.4480                 1.3346                 2.3198
 Frc consts  --      0.0598                 0.0603                 0.1513
 IR Inten    --      0.7615                 1.5844                 1.7487

                     13                     14                     15
                      A                      A                      A
 Frequencies --    347.0406               367.3342               447.6265
 Red. masses --      2.9642                 2.2204                 3.6100
 Frc consts  --      0.2103                 0.1765                 0.4262
 IR Inten    --      1.6349                 1.6891                 6.9331

                     16                     17                     18
                      A                      A                      A
 Frequencies --    478.6811               556.1543               622.7638
 Red. masses --      2.5510                 6.5451                 3.2059
 Frc consts  --      0.3444                 1.1928                 0.7326
 IR Inten    --      1.7714                 4.9129                 9.4960

                     19                     20                     21
                      A                      A                      A
 Frequencies --    709.7746               764.7879               821.1385
 Red. masses --      3.8831                 1.2925                 2.2901
 Frc consts  --      1.1526                 0.4454                 0.9098
 IR Inten    --      7.9742                 5.1975                 1.7031

                     22                     23                     24
                      A                      A                      A
 Frequencies --    890.6358               896.3394               934.5796
 Red. masses --      1.5721                 1.6315                 1.4332
 Frc consts  --      0.7347                 0.7723                 0.7375
 IR Inten    --     19.0766                20.2397                21.6423

                     25                     26                     27
                      A                      A                      A
 Frequencies --    937.2344               992.4557              1028.0529
 Red. masses --      1.8661                 1.7001                 1.9529
 Frc consts  --      0.9658                 0.9866                 1.2161
 IR Inten    --      5.6003                 1.2564                 0.8866

                     28                     29                     30
                      A                      A                      A
 Frequencies --   1054.0201              1080.7934              1084.3269
 Red. masses --      5.0503                 1.6503                 2.3876
 Frc consts  --      3.3057                 1.1358                 1.6540
 IR Inten    --     74.5709                11.2899                12.8688

                     31                     32                     33
                      A                      A                      A
 Frequencies --   1104.8233              1128.9039              1146.0343
 Red. masses --      1.4121                 1.8656                 1.8552
 Frc consts  --      1.0155                 1.4008                 1.4356
 IR Inten    --      5.2012                 3.6144                 0.7554

                     34                     35                     36
                      A                      A                      A
 Frequencies --   1212.0587              1260.9014              1283.6916
 Red. masses --      1.3514                 1.4063                 1.3799
 Frc consts  --      1.1697                 1.3173                 1.3397
 IR Inten    --      2.2182                 0.9478                 6.9905

                     37                     38                     39
                      A                      A                      A
 Frequencies --   1319.9303              1322.6458              1337.6839
 Red. masses --      1.2653                 1.5178                 1.1610
 Frc consts  --      1.2988                 1.5644                 1.2240
 IR Inten    --      3.5051                 9.7565                 2.9630

                     40                     41                     42
                      A                      A                      A
 Frequencies --   1400.3649              1403.4890              1421.7282
 Red. masses --      1.3262                 1.4718                 1.1826
 Frc consts  --      1.5323                 1.7081                 1.4084
 IR Inten    --      5.2108                 2.5237                10.8245

                     43                     44                     45
                      A                      A                      A
 Frequencies --   1433.1828              1448.1753              1486.0516
 Red. masses --      1.2088                 1.2576                 1.0894
 Frc consts  --      1.4629                 1.5540                 1.4174
 IR Inten    --     12.0733                 6.7027                 5.6731

                     46                     47                     48
                      A                      A                      A
 Frequencies --   1514.9334              1523.4276              1527.7504
 Red. masses --      1.0810                 1.0624                 1.0508
 Frc consts  --      1.4617                 1.4527                 1.4450
 IR Inten    --      3.4550                 1.8663                11.0186

                     49                     50                     51
                      A                      A                      A
 Frequencies --   1534.2600              1535.9097              1547.4459
 Red. masses --      1.0565                 1.0482                 1.0555
 Frc consts  --      1.4653                 1.4568                 1.4892
 IR Inten    --      3.0657                12.9581                 4.9326

                     52                     53                     54
                      A                      A                      A
 Frequencies --   1814.7082              2908.9090              3038.1219
 Red. masses --     10.4377                 1.0842                 1.0825
 Frc consts  --     20.2520                 5.4054                 5.8869
 IR Inten    --    124.2077               144.6961                 5.6574

                     55                     56                     57
                      A                      A                      A
 Frequencies --   3040.9905              3044.1043              3046.3842
 Red. masses --      1.0655                 1.0475                 1.0533
 Frc consts  --      5.8055                 5.7189                 5.7594
 IR Inten    --     19.1015                11.5161                31.0554

                     58                     59                     60
                      A                      A                      A
 Frequencies --   3060.9882              3076.7329              3088.9987
 Red. masses --      1.0339                 1.0986                 1.0757
 Frc consts  --      5.7074                 6.1275                 6.0475
 IR Inten    --     18.7077                34.0629                10.7728

                     61                     62                     63
                      A                      A                      A
 Frequencies --   3093.5073              3110.3114              3123.6438
 Red. masses --      1.0842                 1.1004                 1.1024
 Frc consts  --      6.1130                 6.2722                 6.3374
 IR Inten    --     16.1937                40.3253                41.7639

                     64                     65                     66
                      A                      A                      A
 Frequencies --   3131.7592              3145.8175              3166.8129
 Red. masses --      1.1028                 1.1037                 1.1037
 Frc consts  --      6.3726                 6.4351                 6.5214
 IR Inten    --     11.5913                 8.2396                 3.1432

 - Thermochemistry -
 -------------------
 Temperature   298.150 Kelvin.  Pressure   1.00000 Atm.
 Atom     1 has atomic number  6 and mass  12.00000

 Molecular mass:   162.07145 amu.
 Principal axes and moments of inertia in atomic units:
                           1         2         3
     Eigenvalues --  1184.870332213.036842889.41632
           X            0.99975   0.02002  -0.00993
           Y           -0.02028   0.99944  -0.02653
           Z            0.00939   0.02672   0.99960
 This molecule is an asymmetric top.
 Rotational symmetry number  1.
 Warning -- assumption of classical behavior for rotation
           may cause significant error
 Rotational temperatures (Kelvin)      0.07310     0.03914     0.02998
 Rotational constants (GHZ):           1.52316     0.81550     0.62460
 Zero-point vibrational energy     537463.0 (Joules/Mol)
                                  128.45674 (Kcal/Mol)
 Warning -- explicit consideration of  17 degrees of freedom as
           vibrations may cause significant error
 Vibrational temperatures:     41.89    83.58   100.29   127.94   214.54
          (Kelvin)            237.66   266.07   300.14   330.49   380.96
                              398.56   478.71   499.31   528.51   644.03
                              688.72   800.18   896.02  1021.21  1100.36
                             1181.44  1281.43  1289.63  1344.65  1348.47
                             1427.92  1479.14  1516.50  1555.02  1560.10
                             1589.59  1624.24  1648.89  1743.88  1814.16
                             1846.95  1899.09  1902.99  1924.63  2014.81
                             2019.31  2045.55  2062.03  2083.60  2138.10
                             2179.65  2191.87  2198.09  2207.46  2209.83
                             2226.43  2610.96  4185.27  4371.18  4375.31
                             4379.79  4383.07  4404.08  4426.73  4444.38
                             4450.87  4475.04  4494.23  4505.90  4526.13
                             4556.34

 Zero-point correction=                           0.204709 (Hartree/Particle)
 Thermal correction to Energy=                    0.217378
 Thermal correction to Enthalpy=                  0.218322
 Thermal correction to Gibbs Free Energy=         0.164865
 Sum of electronic and zero-point Energies=           -823.593084
 Sum of electronic and thermal Energies=              -823.580415
 Sum of electronic and thermal Enthalpies=            -823.579471
 Sum of electronic and thermal Free Energies=         -823.632928

                     E (Thermal)             CV                S
                      KCal/Mol        Cal/Mol-Kelvin    Cal/Mol-Kelvin
 Total                  136.406             44.487            112.509
 Electronic               0.000              0.000              0.000
 Translational            0.889              2.981             41.157
 Rotational               0.889              2.981             30.406
 Vibrational            134.629             38.525             40.946
 Vibration     1          0.593              1.984              5.889
 Vibration     2          0.596              1.974              4.521
 Vibration     3          0.598              1.969              4.162
 Vibration     4          0.602              1.957              3.684
 Vibration     5          0.618              1.904              2.684
 Vibration     6          0.624              1.885              2.490
 Vibration     7          0.631              1.860              2.278
 Vibration     8          0.642              1.828              2.056
 Vibration     9          0.652              1.796              1.881
 Vibration    10          0.671              1.738              1.630
 Vibration    11          0.678              1.716              1.552
 Vibration    12          0.715              1.610              1.247
 Vibration    13          0.725              1.581              1.180
 Vibration    14          0.740              1.539              1.091
 Vibration    15          0.807              1.366              0.803
 Vibration    16          0.835              1.297              0.714
 Vibration    17          0.912              1.126              0.532

 Optimization completed.
    -- Stationary point found.
 Normal termination of Gaussian 16 at Tue Dec  8 13:42:32 2020.

 ----------------------------------------------------------------------
 # B3LYP/6-311++G(d,p) empiricaldispersion=gd3bj scf=xqc pop=npa geom=c
 heck
 ----------------------------------------------------------------------

 -------------------------------------
 CID_20521756_JID_997_Energie_neutraal
 -------------------------------------
 Structure from the checkpoint file:  "JID_997.chk"
 Charge =  0 Multiplicity = 1

 SCF Done:  E(RB3LYP) =  -823.954650857     A.U. after   14 cycles
 Normal termination of Gaussian 16 at Tue Dec  8 13:44:42 2020.

 ----------------------------------------------------------------------
 # B3LYP/6-311++G(d,p) empiricaldispersion=gd3bj scf=xqc pop=npa geom=c
 heck
 ----------------------------------------------------------------------

 -----------------------------------
 CID_20521756_JID_997_Energie_kation
 -----------------------------------
 Structure from the checkpoint file:  "JID_997.chk"
 Charge =  1 Multiplicity = 2

 SCF Done:  E(UB3LYP) =  -823.640477054     A.U. after   21 cycles
 Normal termination of Gaussian 16 at Tue Dec  8 13:49:58 2020.
 Gaussian 16:  ES64L-G16RevA.03 25-Dec-2016

 ----------------------------------------------------------------------
 # B3LYP/6-311++G(d,p) empiricaldispersion=gd3bj scf=xqc pop=npa geom=c
 heck
 ----------------------------------------------------------------------

 ----------------------------------
 CID_20521756_JID_997_Energie_anion
 ----------------------------------
 Structure from the checkpoint file:  "JID_997.chk"
 Charge = -1 Multiplicity = 2

                         Standard orientation:
 ---------------------------------------------------------------------
 Center     Atomic      Atomic             Coordinates (Angstroms)
 Number     Number       Type             X           Y           Z
 ---------------------------------------------------------------------
      1          6           0        2.956909    1.318941   -0.112690
      2          6           0        2.855430   -0.204685   -0.234230
      3          6           0        1.971757   -0.860580    0.838331
      4          6           0        0.543408   -0.315294    0.913663
      5         16           0       -0.330314   -0.639922   -0.675116
      6          8           0       -0.615087   -2.131583   -0.708371
      7          6           0       -1.973540    0.154548   -0.265213
      8          6           0       -2.657632   -0.498595    0.940539
      9          6           0       -1.885800    1.655926   -0.159359
     10          8           0       -0.859195    2.301259   -0.141909
     11          1           0        3.292042    1.614199    0.889815
     12          1           0        1.994519    1.806942   -0.300758
     13          1           0        3.675681    1.720641   -0.835085
     14          1           0        2.479207   -0.465277   -1.231797
     15          1           0        3.856965   -0.647433   -0.165134
     16          1           0        1.923683   -1.942752    0.669965
     17          1           0        2.428694   -0.714495    1.826388
     18          1           0       -0.023196   -0.829519    1.695526
     19          1           0        0.516583    0.762402    1.084099
     20          1           0       -2.569729   -0.076281   -1.160200
     21          1           0       -2.216507   -0.170493    1.885938
     22          1           0       -3.725993   -0.259465    0.958412
     23          1           0       -2.542519   -1.583442    0.851011
     24          1           0       -2.873342    2.164759   -0.090324
 ---------------------------------------------------------------------

 SCF Done:  E(UB3LYP) =  -823.951913547     A.U. after   31 cycles

 The electronic state is 2-A.
 Alpha  occ. eigenvalues --  -88.81971 -18.96205 -18.95881 -10.09541 -10.08225
 Alpha  occ. eigenvalues --  -10.07739 -10.06892 -10.06700 -10.05657 -10.04599
 Alpha  occ. eigenvalues --   -7.89729  -5.85996  -5.85858  -5.85314  -0.90147
 Alpha  occ. eigenvalues --   -0.88654  -0.70674  -0.67872  -0.63393  -0.57459
 Alpha  occ. eigenvalues --   -0.54136  -0.50771  -0.46071  -0.42060  -0.37218
 Alpha  occ. eigenvalues --   -0.36645  -0.35626  -0.32828  -0.32147  -0.30889
 Alpha  occ. eigenvalues --   -0.30170  -0.29232  -0.28080  -0.27576  -0.25921
 Alpha  occ. eigenvalues --   -0.25030  -0.24350  -0.23654  -0.22861  -0.22736
 Alpha  occ. eigenvalues --   -0.22181  -0.15022  -0.12095  -0.10613   0.04991
 Alpha virt. eigenvalues --    0.06838   0.08417   0.08743   0.09428   0.10326
 Alpha virt. eigenvalues --    0.10913   0.11372   0.12212   0.12522   0.12709
 Alpha virt. eigenvalues --    0.14110   0.14173   0.14628   0.14972   0.15912

  Beta  occ. eigenvalues --  -88.81969 -18.95879 -18.95718 -10.09139 -10.08259
  Beta  occ. eigenvalues --  -10.07735 -10.06881 -10.06692 -10.05649 -10.04476
  Beta  occ. eigenvalues --   -7.89727  -5.85991  -5.85855  -5.85312  -0.89340
  Beta  occ. eigenvalues --   -0.88549  -0.70648  -0.67688  -0.63337  -0.57397
  Beta  occ. eigenvalues --   -0.53908  -0.50436  -0.45848  -0.41687  -0.37143
  Beta  occ. eigenvalues --   -0.36573  -0.35348  -0.32679  -0.32051  -0.30476
  Beta  occ. eigenvalues --   -0.30110  -0.29075  -0.27687  -0.27510  -0.25715
  Beta  occ. eigenvalues --   -0.24674  -0.24254  -0.23442  -0.22839  -0.22249
  Beta  occ. eigenvalues --   -0.20891  -0.14981  -0.11878  -0.10465
  Beta virt. eigenvalues --    0.07078   0.08549   0.08990   0.09434   0.10407
  Beta virt. eigenvalues --    0.11121   0.11479   0.12138   0.12378   0.12689
  Beta virt. eigenvalues --    0.13019   0.14283   0.14373   0.14696   0.15151

 Mulliken charges and spin densities:
               1          2
     1  C   -0.212228  -0.432701
     2  C   -0.307372   0.283952
     3  C    0.728806  -1.186966
     4  C   -0.982495   0.498157
     5  S    0.924593  -0.458276
     6  O   -0.444656   0.015215
     7  C   -0.676279   0.788891
     8  C    0.968958  -1.508431
     9  C   -0.116461   0.055230
    10  O   -0.350480   0.127541
    11  H    0.021771   0.099473
    12  H    0.188284   0.015552
    13  H    0.010873   0.106283
    14  H    0.094300   0.038066
    15  H   -0.045536   0.192962
    16  H    0.113274   0.053894
    17  H   -0.242724   0.390266
    18  H    0.184584   0.067881
    19  H    0.201707  -0.016641
    20  H    0.087989   0.168527
    21  H   -0.404444   0.560296
    22  H   -0.620222   0.776559
    23  H    0.011293   0.181898
    24  H   -0.133536   0.182373
 Sum of Mulliken charges =  -1.00000   1.00000

 Dipole moment (field-independent basis, Debye):
    X=              4.3844    Y=              0.1919    Z=             -2.0387  Tot=              4.8390
 Quadrupole moment (field-independent basis, Debye-Ang):
   XX=           -119.0871   YY=           -108.0642   ZZ=            -92.2183
   XY=             -0.6666   XZ=              6.5052   YZ=             -2.3556

 Summary of Natural Population Analysis:

                                       Natural Population
                Natural  -----------------------------------------------
    Atom  No    Charge         Core      Valence    Rydberg      Total
 -----------------------------------------------------------------------
      C    1   -0.29250      0.99966     2.28826    0.00457     3.29250
      C    2   -0.19535      0.99964     2.18654    0.00916     3.19535
      C    3   -0.19853      0.99962     2.18891    0.00999     3.19853
      C    4   -0.28556      0.99959     2.27300    0.01298     3.28556
      S    5    0.58697      4.99943     2.36252    0.05107     7.41303
      O    6   -0.49574      0.99993     3.48973    0.00608     4.49574
      C    7   -0.23328      0.99955     2.21846    0.01527     3.23328
      C    8   -0.29101      0.99963     2.28349    0.00789     3.29101
      C    9    0.26347      0.99969     1.71356    0.02327     2.73653
      O   10   -0.25161      0.99988     3.24522    0.00651     4.25161
      H   11    0.09304      0.00000     0.40590    0.00105     0.40696
      H   12    0.11013      0.00000     0.38862    0.00125     0.38987
      H   13    0.09495      0.00000     0.40419    0.00086     0.40505
      H   14    0.09735      0.00000     0.40138    0.00128     0.40265
      H   15    0.09322      0.00000     0.40575    0.00102     0.40678
      H   16    0.10488      0.00000     0.39400    0.00112     0.39512
      H   17    0.09797      0.00000     0.40092    0.00111     0.40203
      H   18    0.10971      0.00000     0.38903    0.00126     0.39029
      H   19    0.11974      0.00000     0.37817    0.00210     0.38026
      H   20    0.11197      0.00000     0.38653    0.00150     0.38803
      H   21    0.10030      0.00000     0.39806    0.00164     0.39970
      H   22    0.10562      0.00000     0.39242    0.00196     0.39438
      H   23    0.11455      0.00000     0.38399    0.00146     0.38545
      H   24    0.03971      0.00000     0.45736    0.00292     0.46029
 =======================================================================
   * Total *    0.00000     13.99664    29.83602    0.16734    44.00000

 Normal termination of Gaussian 16 at Tue Dec  8 13:56:41 2020.
