 Gaussian 16, Revision A.03,

 -----------------------------------------------------------
 # opt freq B3LYP/6-31G(d) empiricaldispersion=gd3bj scf=xqc
 -----------------------------------------------------------

 -------------------------------
 CID_106383542_JID_3966_neutraal
 -------------------------------
 Symbolic Z-matrix:
 Charge =  0 Multiplicity = 1

 SCF Done:  E(RB3LYP) =  -950.396522621     A.U. after   15 cycles
 SCF Done:  E(RB3LYP) =  -950.400306027     A.U. after   13 cycles
 SCF Done:  E(RB3LYP) =  -950.400704381     A.U. after   12 cycles
 SCF Done:  E(RB3LYP) =  -950.401071399     A.U. after   12 cycles
 SCF Done:  E(RB3LYP) =  -950.401122875     A.U. after   12 cycles
 SCF Done:  E(RB3LYP) =  -950.401173155     A.U. after   11 cycles
 SCF Done:  E(RB3LYP) =  -950.401181989     A.U. after   10 cycles
 SCF Done:  E(RB3LYP) =  -950.401188827     A.U. after   10 cycles
 SCF Done:  E(RB3LYP) =  -950.401190621     A.U. after    9 cycles
 SCF Done:  E(RB3LYP) =  -950.401191408     A.U. after    8 cycles
 SCF Done:  E(RB3LYP) =  -950.401191696     A.U. after    8 cycles
 Optimization completed.
    -- Stationary point found.
 Normal termination of Gaussian 16 at Mon Dec 14 16:34:15 2020.

 --------------------------------------------------------------------
 #N Geom=AllCheck Guess=TCheck SCRF=Check GenChk RB3LYP/6-31G(d) Freq
 --------------------------------------------------------------------

 Structure from the checkpoint file:  "JID_3966.chk"
 -------------------------------
 CID_106383542_JID_3966_neutraal
 -------------------------------
 Charge =  0 Multiplicity = 1

 SCF Done:  E(RB3LYP) =  -950.401191696     A.U. after    1 cycles

  Exact polarizability: 135.295   8.195 114.675  -1.347   7.949 105.862
 Approx polarizability: 181.264  15.245 196.096  -5.204  22.984 175.613

                      1                      2                      3
                      A                      A                      A
 Frequencies --     36.8768                50.6236                57.1746
 Red. masses --      5.0300                 6.5163                 3.0587
 Frc consts  --      0.0040                 0.0098                 0.0059
 IR Inten    --      1.4019                 0.6135                 0.3944

                      4                      5                      6
                      A                      A                      A
 Frequencies --     70.8275               155.5388               202.5264
 Red. masses --      3.8292                 7.2465                 1.7407
 Frc consts  --      0.0113                 0.1033                 0.0421
 IR Inten    --      0.6612                 0.3376                 1.2227

                      7                      8                      9
                      A                      A                      A
 Frequencies --    212.4789               235.2982               237.9686
 Red. masses --      1.9555                 4.3454                 1.5239
 Frc consts  --      0.0520                 0.1417                 0.0508
 IR Inten    --      4.0126                 4.7909                 2.6054

                     10                     11                     12
                      A                      A                      A
 Frequencies --    249.9653               297.4987               307.1792
 Red. masses --      1.6288                 2.8005                 2.6742
 Frc consts  --      0.0600                 0.1460                 0.1487
 IR Inten    --      1.9163                 1.3524                 0.4224

                     13                     14                     15
                      A                      A                      A
 Frequencies --    355.0654               389.9892               413.0334
 Red. masses --      5.6107                 1.9340                 2.3737
 Frc consts  --      0.4168                 0.1733                 0.2386
 IR Inten    --      7.0848                58.3025                57.8585

                     16                     17                     18
                      A                      A                      A
 Frequencies --    418.5198               528.1898               541.0580
 Red. masses --      1.9741                 2.1491                 3.5103
 Frc consts  --      0.2037                 0.3533                 0.6055
 IR Inten    --     80.4696                33.9868                 5.9171

                     19                     20                     21
                      A                      A                      A
 Frequencies --    543.7596               566.1844               580.2139
 Red. masses --      2.1688                 1.6877                 2.9175
 Frc consts  --      0.3778                 0.3188                 0.5787
 IR Inten    --     29.6955               134.3733                34.0485

                     22                     23                     24
                      A                      A                      A
 Frequencies --    601.5975               628.8827               657.8607
 Red. masses --      2.5955                 4.8561                 5.3164
 Frc consts  --      0.5534                 1.1316                 1.3556
 IR Inten    --     19.3140                65.7781                29.8322

                     25                     26                     27
                      A                      A                      A
 Frequencies --    703.3616               726.2317               737.2539
 Red. masses --      2.6804                 1.6600                 4.6019
 Frc consts  --      0.7813                 0.5158                 1.4737
 IR Inten    --     17.5728                24.1867                28.7039

                     28                     29                     30
                      A                      A                      A
 Frequencies --    765.2652               826.1061               913.1528
 Red. masses --      3.0678                 4.2117                 2.4436
 Frc consts  --      1.0585                 1.6935                 1.2005
 IR Inten    --      5.4244                12.9438                 4.2923

                     31                     32                     33
                      A                      A                      A
 Frequencies --    946.7675               981.8128               991.3055
 Red. masses --      1.1655                 1.4819                 2.1123
 Frc consts  --      0.6155                 0.8417                 1.2230
 IR Inten    --      2.5330                 0.2054                13.5203

                     34                     35                     36
                      A                      A                      A
 Frequencies --   1015.9342              1030.6548              1107.1221
 Red. masses --      3.1401                 2.3269                 1.6351
 Frc consts  --      1.9095                 1.4563                 1.1808
 IR Inten    --      3.1743                 7.0761                 7.2243

                     37                     38                     39
                      A                      A                      A
 Frequencies --   1134.1339              1148.6030              1185.3343
 Red. masses --      2.3919                 1.9935                 2.2405
 Frc consts  --      1.8127                 1.5496                 1.8547
 IR Inten    --      3.6310                48.9127                10.0046

                     40                     41                     42
                      A                      A                      A
 Frequencies --   1194.4207              1203.7584              1262.9477
 Red. masses --      1.6568                 1.7988                 1.5410
 Frc consts  --      1.3926                 1.5357                 1.4482
 IR Inten    --      3.7282                 2.4190                28.7594

                     43                     44                     45
                      A                      A                      A
 Frequencies --   1306.8057              1347.0991              1364.1307
 Red. masses --      1.6141                 1.3858                 1.4024
 Frc consts  --      1.6241                 1.4817                 1.5375
 IR Inten    --     38.9850                 4.7598                62.9740

                     46                     47                     48
                      A                      A                      A
 Frequencies --   1383.8504              1399.5998              1431.6299
 Red. masses --      2.0355                 1.6845                 1.2157
 Frc consts  --      2.2967                 1.9441                 1.4680
 IR Inten    --     11.6360                32.0845                 2.1963

                     49                     50                     51
                      A                      A                      A
 Frequencies --   1455.6604              1461.4075              1514.2970
 Red. masses --      1.5613                 1.9934                 1.0460
 Frc consts  --      1.9492                 2.5084                 1.4132
 IR Inten    --     12.5668                33.3418                 0.5234

                     52                     53                     54
                      A                      A                      A
 Frequencies --   1522.3844              1532.2537              1533.5841
 Red. masses --      1.0473                 1.0751                 1.0526
 Frc consts  --      1.4301                 1.4871                 1.4586
 IR Inten    --      2.1244                 7.3225                 3.5715

                     55                     56                     57
                      A                      A                      A
 Frequencies --   1537.7686              1655.1360              1674.2674
 Red. masses --      1.0660                 1.3063                 7.0460
 Frc consts  --      1.4852                 2.1085                11.6370
 IR Inten    --      7.7962                56.7588                 4.6963

                     58                     59                     60
                      A                      A                      A
 Frequencies --   1720.9215              1831.7809              3022.3729
 Red. masses --      4.8827                11.6590                 1.0620
 Frc consts  --      8.5198                23.0493                 5.7156
 IR Inten    --    393.4083               605.6398                44.4418

                     61                     62                     63
                      A                      A                      A
 Frequencies --   3049.6455              3054.9092              3056.2718
 Red. masses --      1.0385                 1.0411                 1.0953
 Frc consts  --      5.6908                 5.7243                 6.0280
 IR Inten    --     18.0619                44.7458                14.7521

                     64                     65                     66
                      A                      A                      A
 Frequencies --   3098.7289              3113.6163              3125.7562
 Red. masses --      1.0866                 1.1009                 1.0979
 Frc consts  --      6.1475                 6.2885                 6.3203
 IR Inten    --      2.9509                 1.0923                53.5392

                     67                     68                     69
                      A                      A                      A
 Frequencies --   3131.3676              3144.6903              3276.6759
 Red. masses --      1.1018                 1.1012                 1.0950
 Frc consts  --      6.3655                 6.4162                 6.9265
 IR Inten    --     26.5642                18.3591                 3.5169

                     70                     71                     72
                      A                      A                      A
 Frequencies --   3569.2645              3617.8587              3686.0837
 Red. masses --      1.0466                 1.0781                 1.1005
 Frc consts  --      7.8557                 8.3138                 8.8099
 IR Inten    --     22.5827                67.4351                18.1131

 - Thermochemistry -
 -------------------
 Temperature   298.150 Kelvin.  Pressure   1.00000 Atm.
 Atom     1 has atomic number  6 and mass  12.00000

 Molecular mass:   199.07793 amu.
 Principal axes and moments of inertia in atomic units:
                           1         2         3
     Eigenvalues --  1479.908474353.092144549.92059
           X            0.99972  -0.01757   0.01579
           Y            0.01822   0.99893  -0.04247
           Z           -0.01503   0.04274   0.99897
 This molecule is an asymmetric top.
 Rotational symmetry number  1.
 Warning -- assumption of classical behavior for rotation
           may cause significant error
 Rotational temperatures (Kelvin)      0.05853     0.01990     0.01904
 Rotational constants (GHZ):           1.21950     0.41459     0.39665
 Zero-point vibrational energy     561241.8 (Joules/Mol)
                                  134.14000 (Kcal/Mol)
 Warning -- explicit consideration of  22 degrees of freedom as
           vibrations may cause significant error
 Vibrational temperatures:     53.06    72.84    82.26   101.91   223.79
          (Kelvin)            291.39   305.71   338.54   342.38   359.64
                              428.03   441.96   510.86   561.11   594.26
                              602.16   759.95   778.46   782.35   814.61
                              834.80   865.56   904.82   946.51  1011.98
                             1044.89  1060.74  1101.05  1188.58  1313.82
                             1362.19  1412.61  1426.27  1461.70  1482.88
                             1592.90  1631.77  1652.58  1705.43  1718.50
                             1731.94  1817.10  1880.20  1938.18  1962.68
                             1991.05  2013.71  2059.80  2094.37  2102.64
                             2178.74  2190.37  2204.57  2206.49  2212.51
                             2381.37  2408.90  2476.02  2635.52  4348.52
                             4387.76  4395.33  4397.29  4458.38  4479.80
                             4497.27  4505.34  4524.51  4714.41  5135.38
                             5205.29  5303.45

 Zero-point correction=                           0.213766 (Hartree/Particle)
 Thermal correction to Energy=                    0.227550
 Thermal correction to Enthalpy=                  0.228494
 Thermal correction to Gibbs Free Energy=         0.172594
 Sum of electronic and zero-point Energies=           -950.187426
 Sum of electronic and thermal Energies=              -950.173641
 Sum of electronic and thermal Enthalpies=            -950.172697
 Sum of electronic and thermal Free Energies=         -950.228598

                     E (Thermal)             CV                S
                      KCal/Mol        Cal/Mol-Kelvin    Cal/Mol-Kelvin
 Total                  142.790             51.616            117.653
 Electronic               0.000              0.000              0.000
 Translational            0.889              2.981             41.770
 Rotational               0.889              2.981             31.750
 Vibrational            141.012             45.654             44.133
 Vibration     1          0.594              1.982              5.420
 Vibration     2          0.595              1.977              4.793
 Vibration     3          0.596              1.975              4.552
 Vibration     4          0.598              1.968              4.130
 Vibration     5          0.620              1.896              2.603
 Vibration     6          0.639              1.836              2.110
 Vibration     7          0.644              1.822              2.022
 Vibration     8          0.655              1.787              1.838
 Vibration     9          0.656              1.783              1.818
 Vibration    10          0.663              1.763              1.731
 Vibration    11          0.691              1.678              1.431
 Vibration    12          0.697              1.660              1.377
 Vibration    13          0.731              1.565              1.144
 Vibration    14          0.758              1.492              1.000
 Vibration    15          0.777              1.442              0.916
 Vibration    16          0.781              1.430              0.897
 Vibration    17          0.883              1.188              0.591
 Vibration    18          0.896              1.159              0.563
 Vibration    19          0.899              1.153              0.557
 Vibration    20          0.922              1.104              0.512
 Vibration    21          0.937              1.074              0.485
 Vibration    22          0.960              1.028              0.447

                           ! Non-Optimized Parameters !
 Normal termination of Gaussian 16 at Mon Dec 14 16:41:36 2020.

 ----------------------------------------------------------------------
 # B3LYP/6-311++G(d,p) empiricaldispersion=gd3bj scf=xqc pop=npa geom=c
 heck
 ----------------------------------------------------------------------

 ---------------------------------------
 CID_106383542_JID_3966_Energie_neutraal
 ---------------------------------------
 Structure from the checkpoint file:  "JID_3966.chk"
 Charge =  0 Multiplicity = 1

 SCF Done:  E(RB3LYP) =  -950.595062153     A.U. after   16 cycles
 Normal termination of Gaussian 16 at Mon Dec 14 16:45:11 2020.

 ----------------------------------------------------------------------
 # B3LYP/6-311++G(d,p) empiricaldispersion=gd3bj scf=xqc pop=npa geom=c
 heck
 ----------------------------------------------------------------------

 -------------------------------------
 CID_106383542_JID_3966_Energie_kation
 -------------------------------------
 Structure from the checkpoint file:  "JID_3966.chk"
 Charge =  1 Multiplicity = 2

 SCF Done:  E(UB3LYP) =  -950.301776022     A.U. after   24 cycles
 Normal termination of Gaussian 16 at Mon Dec 14 16:52:55 2020.
 Gaussian 16:  ES64L-G16RevA.03 25-Dec-2016

 ----------------------------------------------------------------------
 # B3LYP/6-311++G(d,p) empiricaldispersion=gd3bj scf=xqc pop=npa geom=c
 heck
 ----------------------------------------------------------------------

 ------------------------------------
 CID_106383542_JID_3966_Energie_anion
 ------------------------------------
 Structure from the checkpoint file:  "JID_3966.chk"
 Charge = -1 Multiplicity = 2

                         Standard orientation:
 ---------------------------------------------------------------------
 Center     Atomic      Atomic             Coordinates (Angstroms)
 Number     Number       Type             X           Y           Z
 ---------------------------------------------------------------------
      1          6           0       -1.350007    1.255876   -1.350620
      2          6           0       -2.096138    0.819094   -0.074961
      3          6           0       -3.520578    1.392726   -0.025771
      4          6           0       -2.069264   -0.701582    0.046259
      5          7           0       -1.317628   -1.418398    0.806970
      6          6           0       -0.393342   -0.772368    1.732109
      7          6           0        0.823157   -0.244868    1.021301
      8          6           0        1.473443    0.922581    1.188512
      9         16           0        2.836654    1.084658    0.081081
     10          6           0        2.467982   -0.536873   -0.665290
     11          8           0        3.061124   -1.059366   -1.582573
     12          7           0        1.380558   -1.036709    0.021069
     13          7           0       -2.972162   -1.362152   -0.759735
     14          1           0       -1.857390    0.896281   -2.254216
     15          1           0       -0.324433    0.876968   -1.362549
     16          1           0       -1.308886    2.348689   -1.406880
     17          1           0       -1.542884    1.225094    0.775236
     18          1           0       -4.113148    1.098018   -0.898761
     19          1           0       -4.055753    1.055558    0.867437
     20          1           0       -3.480085    2.487371   -0.010807
     21          1           0       -0.836699    0.047122    2.315395
     22          1           0       -0.084256   -1.535851    2.457656
     23          1           0        1.233785    1.698699    1.900803
     24          1           0        0.936017   -1.893845   -0.283244
     25          1           0       -3.270804   -0.910306   -1.612240
     26          1           0       -2.817821   -2.360107   -0.831909
 ---------------------------------------------------------------------

 SCF Done:  E(UB3LYP) =  -950.587177738     A.U. after   31 cycles

 The electronic state is 2-A.
 Alpha  occ. eigenvalues --  -88.78101 -19.01692 -14.27451 -14.21945 -14.18611
 Alpha  occ. eigenvalues --  -10.21335 -10.14639 -10.13377 -10.11544 -10.10568
 Alpha  occ. eigenvalues --  -10.08799 -10.06592 -10.06247  -7.86724  -5.83029
 Alpha  occ. eigenvalues --   -5.82706  -5.82229  -0.96964  -0.88390  -0.85457
 Alpha  occ. eigenvalues --   -0.77401  -0.71998  -0.69866  -0.66724  -0.59149
 Alpha  occ. eigenvalues --   -0.58679  -0.52650  -0.52149  -0.51070  -0.46168
 Alpha  occ. eigenvalues --   -0.43696  -0.40931  -0.38110  -0.36558  -0.36159
 Alpha  occ. eigenvalues --   -0.35336  -0.34853  -0.34090  -0.33520  -0.32611
 Alpha  occ. eigenvalues --   -0.31729  -0.29364  -0.27833  -0.27269  -0.26076
 Alpha  occ. eigenvalues --   -0.25113  -0.24343  -0.23371  -0.20679  -0.18798
 Alpha  occ. eigenvalues --   -0.15442  -0.14170  -0.12604   0.04089
 Alpha virt. eigenvalues --    0.06216   0.07329   0.08190   0.08475   0.09064
 Alpha virt. eigenvalues --    0.09438   0.09503   0.09976   0.10299   0.10638
 Alpha virt. eigenvalues --    0.11590   0.12013   0.12659   0.13009   0.13407

  Beta  occ. eigenvalues --  -88.78097 -19.01692 -14.27435 -14.21879 -14.18592
  Beta  occ. eigenvalues --  -10.21330 -10.14625 -10.13379 -10.11529 -10.10540
  Beta  occ. eigenvalues --  -10.08783 -10.06558 -10.06198  -7.86719  -5.83018
  Beta  occ. eigenvalues --   -5.82704  -5.82226  -0.96959  -0.88373  -0.85407
  Beta  occ. eigenvalues --   -0.77338  -0.71968  -0.69818  -0.66696  -0.59070
  Beta  occ. eigenvalues --   -0.58627  -0.52564  -0.52116  -0.51019  -0.46061
  Beta  occ. eigenvalues --   -0.43640  -0.40893  -0.38072  -0.36527  -0.36117
  Beta  occ. eigenvalues --   -0.35296  -0.34804  -0.34054  -0.33495  -0.32560
  Beta  occ. eigenvalues --   -0.31682  -0.29314  -0.27787  -0.27219  -0.26028
  Beta  occ. eigenvalues --   -0.25098  -0.24279  -0.23313  -0.20661  -0.18788
  Beta  occ. eigenvalues --   -0.15346  -0.14115  -0.12589
  Beta virt. eigenvalues --    0.06665   0.07623   0.07861   0.08522   0.08672
  Beta virt. eigenvalues --    0.09324   0.09757   0.10000   0.10429   0.10572
  Beta virt. eigenvalues --    0.11151   0.11736   0.12145   0.13170   0.13416

 Mulliken charges and spin densities:
               1          2
     1  C    0.481927  -1.094137
     2  C    0.121756   0.422106
     3  C    0.775285  -1.342558
     4  C   -0.273850  -0.041733
     5  N   -0.147271  -0.010156
     6  C    0.949751  -1.965053
     7  C   -0.422580   0.167152
     8  C    0.132447   0.347301
     9  S    0.446770  -0.472376
    10  C   -0.202213   0.216519
    11  O   -0.349576  -0.002126
    12  N   -0.040773   0.034319
    13  N   -0.421907   0.196626
    14  H   -0.169667   0.297006
    15  H    0.007451   0.146546
    16  H   -0.042160   0.190825
    17  H    0.007073   0.102325
    18  H   -0.221133   0.348996
    19  H   -0.229005   0.387847
    20  H   -0.341956   0.499881
    21  H   -0.127681   0.290320
    22  H    0.031423   0.156948
    23  H   -0.847208   1.136013
    24  H    0.232629   0.099949
    25  H   -0.220170   0.486775
    26  H   -0.129359   0.400684
 Sum of Mulliken charges =  -1.00000   1.00000

 Dipole moment (field-independent basis, Debye):
    X=              4.4183    Y=             -1.2684    Z=              1.4308  Tot=              4.8143
 Quadrupole moment (field-independent basis, Debye-Ang):
   XX=           -156.7276   YY=           -125.8498   ZZ=           -127.3732
   XY=              2.7385   XZ=             -1.2953   YZ=             -9.3007

 Summary of Natural Population Analysis:

                                       Natural Population
                Natural  -----------------------------------------------
    Atom  No    Charge         Core      Valence    Rydberg      Total
 -----------------------------------------------------------------------
      C    1   -0.27770      0.99964     2.27178    0.00628     3.27770
      C    2   -0.14680      0.99956     2.13668    0.01056     3.14680
      C    3   -0.28131      0.99965     2.27530    0.00636     3.28131
      C    4    0.25036      0.99956     1.73176    0.01833     2.74964
      N    5   -0.30213      0.99965     2.79012    0.01236     3.80213
      C    6   -0.10990      0.99955     2.09795    0.01240     3.10990
      C    7    0.07142      0.99947     1.91629    0.01281     2.92858
      C    8   -0.20503      0.99941     2.19497    0.01065     3.20503
      S    9    0.12432      4.99952     2.85641    0.01975     7.87568
      C   10    0.26221      0.99973     1.71017    0.02790     2.73779
      O   11   -0.31041      0.99987     3.30297    0.00757     4.31041
      N   12   -0.30844      0.99961     2.79951    0.00931     3.80844
      N   13   -0.39348      0.99970     2.88345    0.01033     3.89348
      H   14    0.09762      0.00000     0.40095    0.00143     0.40238
      H   15    0.10170      0.00000     0.39642    0.00188     0.39830
      H   16    0.10175      0.00000     0.39721    0.00105     0.39825
      H   17    0.10437      0.00000     0.39209    0.00354     0.39563
      H   18    0.09941      0.00000     0.39889    0.00170     0.40059
      H   19    0.10284      0.00000     0.39581    0.00135     0.39716
      H   20    0.10179      0.00000     0.39678    0.00142     0.39821
      H   21    0.09954      0.00000     0.39870    0.00176     0.40046
      H   22    0.10117      0.00000     0.39730    0.00153     0.39883
      H   23    0.11758      0.00000     0.37996    0.00246     0.38242
      H   24    0.21276      0.00000     0.28467    0.00257     0.28724
      H   25    0.19400      0.00000     0.30030    0.00570     0.30600
      H   26    0.19236      0.00000     0.30431    0.00334     0.30764
 =======================================================================
   * Total *   -0.00000     16.99492    35.81073    0.19435    53.00000

 Normal termination of Gaussian 16 at Mon Dec 14 17:02:36 2020.
