 Gaussian 16, Revision A.03,

 -----------------------------------------------------------
 # opt freq B3LYP/6-31G(d) empiricaldispersion=gd3bj scf=xqc
 -----------------------------------------------------------

 -------------------------------
 CID_131057610_JID_4753_neutraal
 -------------------------------
 Symbolic Z-matrix:
 Charge =  0 Multiplicity = 1

 SCF Done:  E(RB3LYP) =  -939.177786228     A.U. after   15 cycles
 SCF Done:  E(RB3LYP) =  -939.183417627     A.U. after   12 cycles
 SCF Done:  E(RB3LYP) =  -939.183942353     A.U. after   11 cycles
 SCF Done:  E(RB3LYP) =  -939.184061019     A.U. after   11 cycles
 SCF Done:  E(RB3LYP) =  -939.184103004     A.U. after   10 cycles
 SCF Done:  E(RB3LYP) =  -939.184157958     A.U. after   11 cycles
 SCF Done:  E(RB3LYP) =  -939.184264156     A.U. after   11 cycles
 SCF Done:  E(RB3LYP) =  -939.184359546     A.U. after   12 cycles
 SCF Done:  E(RB3LYP) =  -939.184377453     A.U. after   11 cycles
 SCF Done:  E(RB3LYP) =  -939.184393248     A.U. after   10 cycles
 SCF Done:  E(RB3LYP) =  -939.184451441     A.U. after    9 cycles
 SCF Done:  E(RB3LYP) =  -939.184463678     A.U. after   10 cycles
 SCF Done:  E(RB3LYP) =  -939.184470138     A.U. after   10 cycles
 SCF Done:  E(RB3LYP) =  -939.184470514     A.U. after    8 cycles
 SCF Done:  E(RB3LYP) =  -939.184470601     A.U. after    7 cycles
 Optimization completed.
    -- Stationary point found.
 Normal termination of Gaussian 16 at Thu Dec 10 10:40:24 2020.

 --------------------------------------------------------------------
 #N Geom=AllCheck Guess=TCheck SCRF=Check GenChk RB3LYP/6-31G(d) Freq
 --------------------------------------------------------------------

 Structure from the checkpoint file:  "JID_4753.chk"
 -------------------------------
 CID_131057610_JID_4753_neutraal
 -------------------------------
 Charge =  0 Multiplicity = 1

 SCF Done:  E(RB3LYP) =  -939.184470601     A.U. after    1 cycles

  Exact polarizability: 212.842 -12.274 149.318  -8.146  -4.338  79.750
 Approx polarizability: 306.080 -24.883 267.224 -18.628  -8.456 123.563

                      1                      2                      3
                      A                      A                      A
 Frequencies --     45.1609                51.4285                64.1338
 Red. masses --      3.5551                 1.1121                 2.8303
 Frc consts  --      0.0043                 0.0017                 0.0069
 IR Inten    --      0.9769                 0.4890                 0.1050

                      4                      5                      6
                      A                      A                      A
 Frequencies --     88.8769                97.7525               162.9019
 Red. masses --      3.8040                 3.7646                 3.9652
 Frc consts  --      0.0177                 0.0212                 0.0620
 IR Inten    --      0.8322                 0.3759                 0.4304

                      7                      8                      9
                      A                      A                      A
 Frequencies --    191.1879               206.7815               243.4198
 Red. masses --      3.0464                 3.1406                 1.3313
 Frc consts  --      0.0656                 0.0791                 0.0465
 IR Inten    --      0.2562                 1.4566                 7.4932

                     10                     11                     12
                      A                      A                      A
 Frequencies --    258.7601               293.6948               315.3574
 Red. masses --      3.7509                 1.5357                 2.1662
 Frc consts  --      0.1480                 0.0780                 0.1269
 IR Inten    --      2.0278                47.0761                 3.9436

                     13                     14                     15
                      A                      A                      A
 Frequencies --    334.5171               347.2515               410.9829
 Red. masses --      2.1370                 2.6742                 4.7980
 Frc consts  --      0.1409                 0.1900                 0.4775
 IR Inten    --     26.8518                33.7239                 0.5542

                     16                     17                     18
                      A                      A                      A
 Frequencies --    432.4741               440.1295               496.0239
 Red. masses --      4.6541                 3.5091                 5.1201
 Frc consts  --      0.5129                 0.4005                 0.7422
 IR Inten    --      2.5326                 1.9490                 0.9347

                     19                     20                     21
                      A                      A                      A
 Frequencies --    535.0031               547.2466               570.6477
 Red. masses --      5.8048                 5.2171                 3.7171
 Frc consts  --      0.9789                 0.9205                 0.7132
 IR Inten    --      1.1362                 6.1693                 4.0084

                     22                     23                     24
                      A                      A                      A
 Frequencies --    638.4828               685.8770               716.0335
 Red. masses --      4.0915                 4.9250                 5.7538
 Frc consts  --      0.9827                 1.3651                 1.7381
 IR Inten    --      9.4380                 5.2560                 1.7676

                     25                     26                     27
                      A                      A                      A
 Frequencies --    746.8043               772.6400               823.7446
 Red. masses --      3.3843                 2.5526                 1.4635
 Frc consts  --      1.1121                 0.8978                 0.5851
 IR Inten    --      1.5682                 4.4609                 6.0133

                     28                     29                     30
                      A                      A                      A
 Frequencies --    827.1080               882.7391               895.7388
 Red. masses --      1.5742                 1.3108                 4.5953
 Frc consts  --      0.6345                 0.6018                 2.1723
 IR Inten    --     20.5658                 3.9647                 5.2733

                     31                     32                     33
                      A                      A                      A
 Frequencies --    946.9815               950.1728               988.9593
 Red. masses --      2.5227                 1.2880                 2.1012
 Frc consts  --      1.3329                 0.6851                 1.2108
 IR Inten    --      8.5661                 0.0142                 1.5036

                     34                     35                     36
                      A                      A                      A
 Frequencies --   1016.4333              1028.7701              1056.2345
 Red. masses --      3.0801                 1.5478                 3.5156
 Frc consts  --      1.8749                 0.9652                 2.3108
 IR Inten    --     82.3207                23.9934                13.1356

                     37                     38                     39
                      A                      A                      A
 Frequencies --   1075.2464              1083.6976              1099.2221
 Red. masses --      1.5015                 2.4457                 1.9103
 Frc consts  --      1.0228                 1.6923                 1.3599
 IR Inten    --      4.7577                11.0559                 7.4523

                     40                     41                     42
                      A                      A                      A
 Frequencies --   1148.9031              1170.4584              1204.9132
 Red. masses --      1.9208                 1.6687                 1.8218
 Frc consts  --      1.4938                 1.3469                 1.5583
 IR Inten    --     17.2599                 1.5403                13.7226

                     43                     44                     45
                      A                      A                      A
 Frequencies --   1220.1350              1245.2684              1304.3530
 Red. masses --      1.1799                 2.9485                 1.5537
 Frc consts  --      1.0349                 2.6939                 1.5574
 IR Inten    --     24.5501                 1.8071                 1.5943

                     46                     47                     48
                      A                      A                      A
 Frequencies --   1308.3800              1358.0464              1364.0169
 Red. masses --      1.1999                 1.9009                 1.5670
 Frc consts  --      1.2102                 2.0656                 1.7178
 IR Inten    --      0.8340                10.7207                 4.0052

                     49                     50                     51
                      A                      A                      A
 Frequencies --   1373.1565              1392.4906              1436.7185
 Red. masses --      2.5131                 2.3781                 1.2195
 Frc consts  --      2.7919                 2.7169                 1.4832
 IR Inten    --      1.4011                 2.0373                 8.9107

                     52                     53                     54
                      A                      A                      A
 Frequencies --   1440.2438              1443.5504              1449.8739
 Red. masses --      1.3144                 1.2659                 2.8746
 Frc consts  --      1.6063                 1.5543                 3.5603
 IR Inten    --     71.3514                 1.6671                10.6043

                     55                     56                     57
                      A                      A                      A
 Frequencies --   1512.3261              1514.2464              1516.2251
 Red. masses --      1.6547                 1.0444                 1.1828
 Frc consts  --      2.2298                 1.4109                 1.6021
 IR Inten    --     20.1325                 5.2108                 7.0318

                     58                     59                     60
                      A                      A                      A
 Frequencies --   1527.2285              1531.3526              1545.5802
 Red. masses --      1.0472                 1.4587                 1.0833
 Frc consts  --      1.4391                 2.0155                 1.5247
 IR Inten    --      8.1355                 8.8978                 1.5639

                     61                     62                     63
                      A                      A                      A
 Frequencies --   1548.0875              1595.0988              1622.1902
 Red. masses --      1.0937                 5.0642                 7.4091
 Frc consts  --      1.5444                 7.5917                11.4874
 IR Inten    --      4.5576                 6.2290                 7.1788

                     64                     65                     66
                      A                      A                      A
 Frequencies --   1665.6796              3019.2526              3042.9209
 Red. masses --      5.9775                 1.0715                 1.0375
 Frc consts  --      9.7714                 5.7548                 5.6600
 IR Inten    --      7.7997                58.9088                44.4802

                     67                     68                     69
                      A                      A                      A
 Frequencies --   3050.7416              3054.1807              3086.0830
 Red. masses --      1.0599                 1.0356                 1.1032
 Frc consts  --      5.8119                 5.6913                 6.1902
 IR Inten    --     27.8124                38.8578                14.1776

                     70                     71                     72
                      A                      A                      A
 Frequencies --   3094.0005              3113.9756              3122.2018
 Red. masses --      1.1010                 1.0922                 1.1028
 Frc consts  --      6.2096                 6.2399                 6.3340
 IR Inten    --     20.6787                23.9095                47.0840

                     73                     74                     75
                      A                      A                      A
 Frequencies --   3126.9294              3147.5937              3177.7653
 Red. masses --      1.1007                 1.1033                 1.0865
 Frc consts  --      6.3411                 6.4400                 6.4642
 IR Inten    --     16.6746                10.0026                10.5412

                     76                     77                     78
                      A                      A                      A
 Frequencies --   3190.9709              3196.3167              3736.9134
 Red. masses --      1.0908                 1.0941                 1.0663
 Frc consts  --      6.5437                 6.5857                 8.7733
 IR Inten    --     16.7464                19.1636                11.2367

 - Thermochemistry -
 -------------------
 Temperature   298.150 Kelvin.  Pressure   1.00000 Atm.
 Atom     1 has atomic number  6 and mass  12.00000

 Molecular mass:   206.07654 amu.
 Principal axes and moments of inertia in atomic units:
                           1         2         3
     Eigenvalues --  1577.355314410.646935661.12450
           X            0.99999  -0.00526  -0.00082
           Y            0.00525   0.99990  -0.01315
           Z            0.00089   0.01315   0.99991
 This molecule is an asymmetric top.
 Rotational symmetry number  1.
 Warning -- assumption of classical behavior for rotation
           may cause significant error
 Rotational temperatures (Kelvin)      0.05491     0.01964     0.01530
 Rotational constants (GHZ):           1.14416     0.40918     0.31880
 Zero-point vibrational energy     609898.0 (Joules/Mol)
                                  145.76913 (Kcal/Mol)
 Warning -- explicit consideration of  21 degrees of freedom as
           vibrations may cause significant error
 Vibrational temperatures:     64.98    73.99    92.27   127.87   140.64
          (Kelvin)            234.38   275.08   297.51   350.23   372.30
                              422.56   453.73   481.30   499.62   591.31
                              622.23   633.25   713.67   769.75   787.37
                              821.03   918.63   986.82  1030.21  1074.48
                             1111.66  1185.18  1190.02  1270.06  1288.77
                             1362.50  1367.09  1422.89  1462.42  1480.17
                             1519.69  1547.04  1559.20  1581.54  1653.02
                             1684.03  1733.60  1755.50  1791.66  1876.67
                             1882.47  1953.93  1962.52  1975.67  2003.48
                             2067.12  2072.19  2076.95  2086.05  2175.90
                             2178.66  2181.51  2197.34  2203.27  2223.75
                             2227.35  2294.99  2333.97  2396.54  4344.03
                             4378.08  4389.34  4394.28  4440.19  4451.58
                             4480.32  4492.15  4498.95  4528.69  4572.10
                             4591.10  4598.79  5376.58

 Zero-point correction=                           0.232298 (Hartree/Particle)
 Thermal correction to Energy=                    0.246353
 Thermal correction to Enthalpy=                  0.247297
 Thermal correction to Gibbs Free Energy=         0.190766
 Sum of electronic and zero-point Energies=           -938.952173
 Sum of electronic and thermal Energies=              -938.938118
 Sum of electronic and thermal Enthalpies=            -938.937173
 Sum of electronic and thermal Free Energies=         -938.993705

                     E (Thermal)             CV                S
                      KCal/Mol        Cal/Mol-Kelvin    Cal/Mol-Kelvin
 Total                  154.589             52.548            118.981
 Electronic               0.000              0.000              0.000
 Translational            0.889              2.981             41.873
 Rotational               0.889              2.981             32.043
 Vibrational            152.811             46.586             45.064
 Vibration     1          0.595              1.979              5.019
 Vibration     2          0.596              1.977              4.762
 Vibration     3          0.597              1.971              4.326
 Vibration     4          0.602              1.957              3.685
 Vibration     5          0.603              1.951              3.499
 Vibration     6          0.623              1.888              2.516
 Vibration     7          0.634              1.852              2.216
 Vibration     8          0.641              1.830              2.072
 Vibration     9          0.659              1.774              1.778
 Vibration    10          0.668              1.748              1.670
 Vibration    11          0.688              1.685              1.453
 Vibration    12          0.703              1.644              1.334
 Vibration    13          0.716              1.607              1.238
 Vibration    14          0.725              1.581              1.179
 Vibration    15          0.775              1.446              0.923
 Vibration    16          0.793              1.399              0.851
 Vibration    17          0.800              1.383              0.826
 Vibration    18          0.852              1.259              0.668
 Vibration    19          0.890              1.173              0.576
 Vibration    20          0.902              1.146              0.550
 Vibration    21          0.927              1.095              0.503

 Optimization completed.
    -- Stationary point found.
 Normal termination of Gaussian 16 at Thu Dec 10 10:48:22 2020.

 ----------------------------------------------------------------------
 # B3LYP/6-311++G(d,p) empiricaldispersion=gd3bj scf=xqc pop=npa geom=c
 heck
 ----------------------------------------------------------------------

 ---------------------------------------
 CID_131057610_JID_4753_Energie_neutraal
 ---------------------------------------
 Structure from the checkpoint file:  "JID_4753.chk"
 Charge =  0 Multiplicity = 1

 SCF Done:  E(RB3LYP) =  -939.361026706     A.U. after   16 cycles
 Normal termination of Gaussian 16 at Thu Dec 10 10:52:32 2020.

 ----------------------------------------------------------------------
 # B3LYP/6-311++G(d,p) empiricaldispersion=gd3bj scf=xqc pop=npa geom=c
 heck
 ----------------------------------------------------------------------

 -------------------------------------
 CID_131057610_JID_4753_Energie_kation
 -------------------------------------
 Structure from the checkpoint file:  "JID_4753.chk"
 Charge =  1 Multiplicity = 2

 SCF Done:  E(UB3LYP) =  -939.080048382     A.U. after   26 cycles
 Normal termination of Gaussian 16 at Thu Dec 10 11:02:04 2020.
 Gaussian 16:  ES64L-G16RevA.03 25-Dec-2016

 ----------------------------------------------------------------------
 # B3LYP/6-311++G(d,p) empiricaldispersion=gd3bj scf=xqc pop=npa geom=c
 heck
 ----------------------------------------------------------------------

 ------------------------------------
 CID_131057610_JID_4753_Energie_anion
 ------------------------------------
 Structure from the checkpoint file:  "JID_4753.chk"
 Charge = -1 Multiplicity = 2

                         Standard orientation:
 ---------------------------------------------------------------------
 Center     Atomic      Atomic             Coordinates (Angstroms)
 Number     Number       Type             X           Y           Z
 ---------------------------------------------------------------------
      1          6           0        3.735131   -0.776003    0.923534
      2          6           0        3.055410   -0.959623   -0.445481
      3          6           0        1.590421   -0.634390   -0.395095
      4          6           0        0.999459    0.598013   -0.439406
      5          6           0       -0.435290    0.539026   -0.251278
      6          6           0       -0.903072   -0.783922   -0.072310
      7         16           0        0.425245   -1.928879   -0.132521
      8          6           0       -2.256627   -1.071425    0.117816
      9          6           0       -3.180908   -0.029153    0.141623
     10          6           0       -2.721712    1.294358   -0.030771
     11          6           0       -1.379646    1.581703   -0.225141
     12          6           0       -4.651126   -0.300145    0.348855
     13          6           0        1.758815    1.888789   -0.566403
     14          8           0        2.251470    2.377295    0.688361
     15          1           0        3.616730    0.257339    1.261234
     16          1           0        4.803778   -1.009342    0.859399
     17          1           0        3.283681   -1.437606    1.670766
     18          1           0        3.539483   -0.305452   -1.180836
     19          1           0        3.198242   -1.985955   -0.803244
     20          1           0       -2.588944   -2.097527    0.249330
     21          1           0       -3.443787    2.106971   -0.011176
     22          1           0       -1.059400    2.611937   -0.355869
     23          1           0       -4.847959   -1.370541    0.461908
     24          1           0       -5.027734    0.206132    1.246301
     25          1           0       -5.246724    0.062285   -0.498101
     26          1           0        2.646194    1.760810   -1.191580
     27          1           0        1.126816    2.646998   -1.051809
     28          1           0        1.518818    2.314295    1.321464
 ---------------------------------------------------------------------

 SCF Done:  E(UB3LYP) =  -939.347677505     A.U. after   33 cycles
 SCF Done:  E(UB3LYP) =  -939.347677505     a.u. after    1 cycles

 The electronic state is 2-A.
 Alpha  occ. eigenvalues --  -88.75213 -19.02465 -10.11948 -10.08836 -10.08065
 Alpha  occ. eigenvalues --  -10.06960 -10.06487 -10.06311 -10.06214 -10.06081
 Alpha  occ. eigenvalues --  -10.06054 -10.05963 -10.05727 -10.04895  -7.83864
 Alpha  occ. eigenvalues --   -5.80171  -5.79820  -5.79412  -0.92301  -0.77703
 Alpha  occ. eigenvalues --   -0.72537  -0.67152  -0.66485  -0.63470  -0.60986
 Alpha  occ. eigenvalues --   -0.57725  -0.55282  -0.52127  -0.48577  -0.46074
 Alpha  occ. eigenvalues --   -0.43862  -0.39973  -0.37715  -0.36562  -0.35241
 Alpha  occ. eigenvalues --   -0.33801  -0.33394  -0.32364  -0.31588  -0.30542
 Alpha  occ. eigenvalues --   -0.30208  -0.28822  -0.27924  -0.26507  -0.26021
 Alpha  occ. eigenvalues --   -0.25666  -0.24432  -0.23122  -0.22228  -0.21952
 Alpha  occ. eigenvalues --   -0.20444  -0.18086  -0.16940  -0.12110  -0.10353
 Alpha  occ. eigenvalues --    0.04889
 Alpha virt. eigenvalues --    0.06425   0.07389   0.07987   0.08582   0.09014
 Alpha virt. eigenvalues --    0.09484   0.09659   0.09825   0.10481   0.11189
 Alpha virt. eigenvalues --    0.11331   0.12579   0.12772   0.13316   0.13830

  Beta  occ. eigenvalues --  -88.75197 -19.02453 -10.11944 -10.08833 -10.07807
  Beta  occ. eigenvalues --  -10.06967 -10.06439 -10.06206 -10.06154 -10.06032
  Beta  occ. eigenvalues --  -10.06018 -10.05924 -10.05705 -10.04840  -7.83849
  Beta  occ. eigenvalues --   -5.80166  -5.79815  -5.79357  -0.92276  -0.77536
  Beta  occ. eigenvalues --   -0.72308  -0.66979  -0.66344  -0.63359  -0.60859
  Beta  occ. eigenvalues --   -0.57637  -0.55130  -0.52006  -0.48473  -0.45921
  Beta  occ. eigenvalues --   -0.43717  -0.39900  -0.37616  -0.36476  -0.35132
  Beta  occ. eigenvalues --   -0.33709  -0.33266  -0.32318  -0.31377  -0.30476
  Beta  occ. eigenvalues --   -0.30089  -0.28634  -0.27769  -0.26331  -0.25927
  Beta  occ. eigenvalues --   -0.25589  -0.24326  -0.23046  -0.22167  -0.21871
  Beta  occ. eigenvalues --   -0.20016  -0.18059  -0.16422  -0.11701  -0.09555
  Beta virt. eigenvalues --    0.06947   0.07659   0.07992   0.08670   0.08873
  Beta virt. eigenvalues --    0.09344   0.09620   0.09886   0.10298   0.10829
  Beta virt. eigenvalues --    0.11237   0.11534   0.12745   0.12954   0.13497

 Mulliken charges and spin densities:
               1          2
     1  C    0.594668  -1.171624
     2  C   -0.578535   0.485220
     3  C   -0.831655   0.828047
     4  C    0.709032  -0.361684
     5  C    1.756902  -0.472492
     6  C   -0.100683   0.008955
     7  S   -0.665285  -0.104694
     8  C   -0.007002  -0.338917
     9  C   -0.272234   0.942688
    10  C   -1.080341   0.285212
    11  C   -0.823662   0.613137
    12  C    1.956496  -2.343414
    13  C   -0.522401  -0.338797
    14  O   -0.199168   0.007136
    15  H    0.108560   0.050494
    16  H   -0.536004   0.669766
    17  H    0.016176   0.107648
    18  H   -0.137710   0.273654
    19  H   -0.367132   0.523014
    20  H    0.053731   0.068183
    21  H   -0.113053   0.258336
    22  H    0.064382   0.028124
    23  H   -0.236422   0.371829
    24  H   -0.281482   0.443790
    25  H    0.033418   0.107515
    26  H    0.098301   0.069239
    27  H    0.148027  -0.015026
    28  H    0.213074   0.004662
 Sum of Mulliken charges =  -1.00000   1.00000

 Dipole moment (field-independent basis, Debye):
    X=             -1.6006    Y=              2.0906    Z=             -1.3966  Tot=              2.9805
 Quadrupole moment (field-independent basis, Debye-Ang):
   XX=           -191.6498   YY=           -119.1264   ZZ=           -112.4466
   XY=              7.7376   XZ=              6.2659   YZ=             -2.1964

 Summary of Natural Population Analysis:

                                       Natural Population
                Natural  -----------------------------------------------
    Atom  No    Charge         Core      Valence    Rydberg      Total
 -----------------------------------------------------------------------
      C    1   -0.28100      0.99965     2.27541    0.00594     3.28100
      C    2   -0.21221      0.99959     2.20128    0.01134     3.21221
      C    3   -0.01571      0.99941     2.00316    0.01313     3.01571
      C    4   -0.07173      0.99937     2.06338    0.00899     3.07173
      C    5   -0.03609      0.99944     2.02775    0.00891     3.03609
      C    6   -0.08459      0.99941     2.07466    0.01052     3.08459
      S    7    0.18831      4.99941     2.79278    0.01950     7.81169
      C    8   -0.10394      0.99945     2.09510    0.00938     3.10394
      C    9    0.00215      0.99953     1.98782    0.01051     2.99785
      C   10   -0.11776      0.99953     2.10747    0.01076     3.11776
      C   11   -0.07762      0.99952     2.07024    0.00786     3.07762
      C   12   -0.29223      0.99964     2.28704    0.00555     3.29223
      C   13   -0.01635      0.99955     2.00417    0.01263     3.01635
      O   14   -0.37087      0.99990     3.36455    0.00642     4.37087
      H   15    0.10512      0.00000     0.39345    0.00143     0.39488
      H   16    0.09774      0.00000     0.39963    0.00263     0.40226
      H   17    0.09477      0.00000     0.40412    0.00111     0.40523
      H   18    0.10359      0.00000     0.39474    0.00167     0.39641
      H   19    0.10280      0.00000     0.39538    0.00182     0.39720
      H   20    0.09787      0.00000     0.40114    0.00099     0.40213
      H   21    0.09555      0.00000     0.40356    0.00088     0.40445
      H   22    0.09384      0.00000     0.40448    0.00168     0.40616
      H   23    0.09917      0.00000     0.39993    0.00090     0.40083
      H   24    0.10515      0.00000     0.39222    0.00263     0.39485
      H   25    0.09933      0.00000     0.39972    0.00095     0.40067
      H   26    0.08966      0.00000     0.40894    0.00139     0.41034
      H   27    0.07803      0.00000     0.42033    0.00164     0.42197
      H   28    0.22703      0.00000     0.26993    0.00305     0.27297
 =======================================================================
   * Total *    0.00000     17.99340    36.84239    0.16420    55.00000

 Normal termination of Gaussian 16 at Thu Dec 10 11:13:38 2020.
