 Gaussian 16, Revision A.03,

 -----------------------------------------------------------
 # opt freq B3LYP/6-31G(d) empiricaldispersion=gd3bj scf=xqc
 -----------------------------------------------------------

 ------------------------------
 CID_64991121_JID_4267_neutraal
 ------------------------------
 Symbolic Z-matrix:
 Charge =  0 Multiplicity = 1

 SCF Done:  E(RB3LYP) =  -1047.85515548     A.U. after   15 cycles
 SCF Done:  E(RB3LYP) =  -1047.85930022     A.U. after   12 cycles
 SCF Done:  E(RB3LYP) =  -1047.85558553     A.U. after   13 cycles
 SCF Done:  E(RB3LYP) =  -1047.85966447     A.U. after   13 cycles
 SCF Done:  E(RB3LYP) =  -1047.86039762     A.U. after   13 cycles
 SCF Done:  E(RB3LYP) =  -1047.86124793     A.U. after   12 cycles
 SCF Done:  E(RB3LYP) =  -1047.86148816     A.U. after   11 cycles
 SCF Done:  E(RB3LYP) =  -1047.86150009     A.U. after   12 cycles
 SCF Done:  E(RB3LYP) =  -1047.86171668     A.U. after   11 cycles
 SCF Done:  E(RB3LYP) =  -1047.86182798     A.U. after   12 cycles
 SCF Done:  E(RB3LYP) =  -1047.86287163     A.U. after    8 cycles
 SCF Done:  E(RB3LYP) =  -1047.86289363     A.U. after   10 cycles
 SCF Done:  E(RB3LYP) =  -1047.86290231     A.U. after   10 cycles
 SCF Done:  E(RB3LYP) =  -1047.86290298     A.U. after    8 cycles
 SCF Done:  E(RB3LYP) =  -1047.86290300     A.U. after    7 cycles
 Optimization completed.
    -- Stationary point found.
 Normal termination of Gaussian 16 at Thu Dec 10 09:34:11 2020.

 --------------------------------------------------------------------
 #N Geom=AllCheck Guess=TCheck SCRF=Check GenChk RB3LYP/6-31G(d) Freq
 --------------------------------------------------------------------

 Structure from the checkpoint file:  "JID_4267.chk"
 ------------------------------
 CID_64991121_JID_4267_neutraal
 ------------------------------
 Charge =  0 Multiplicity = 1

 SCF Done:  E(RB3LYP) =  -1047.86290300     A.U. after    1 cycles

  Exact polarizability: 134.012  -6.024 115.217  -5.594  -1.214 105.162
 Approx polarizability: 163.632  -7.691 185.645 -11.910   5.417 169.469

                      1                      2                      3
                      A                      A                      A
 Frequencies --     34.0042                45.7417                69.7072
 Red. masses --      5.5068                 4.1917                 4.1376
 Frc consts  --      0.0038                 0.0052                 0.0118
 IR Inten    --      5.5326                 2.8157                 2.1698

                      4                      5                      6
                      A                      A                      A
 Frequencies --     72.5678               153.4576               189.4322
 Red. masses --      7.7324                 3.6026                 3.8585
 Frc consts  --      0.0240                 0.0500                 0.0816
 IR Inten    --      3.0181                 6.6909                 2.9058

                      7                      8                      9
                      A                      A                      A
 Frequencies --    211.1739               240.9661               241.8860
 Red. masses --      1.1749                 3.2808                 3.7430
 Frc consts  --      0.0309                 0.1122                 0.1290
 IR Inten    --      0.4967                 2.2486                 6.6929

                     10                     11                     12
                      A                      A                      A
 Frequencies --    267.2332               293.3098               301.2054
 Red. masses --      2.5182                 2.5409                 2.2179
 Frc consts  --      0.1060                 0.1288                 0.1186
 IR Inten    --      1.6346                 4.6088                13.3986

                     13                     14                     15
                      A                      A                      A
 Frequencies --    311.4284               376.1476               401.6814
 Red. masses --      3.8447                 3.3967                 2.9073
 Frc consts  --      0.2197                 0.2832                 0.2764
 IR Inten    --      1.4563                15.1478                 8.9308

                     16                     17                     18
                      A                      A                      A
 Frequencies --    418.6479               435.6157               473.0497
 Red. masses --      3.7307                 3.6173                 3.7487
 Frc consts  --      0.3852                 0.4044                 0.4942
 IR Inten    --     11.2527                16.3886                20.9331

                     19                     20                     21
                      A                      A                      A
 Frequencies --    489.0158               502.7792               548.4713
 Red. masses --      6.1504                 2.9541                 2.1964
 Frc consts  --      0.8666                 0.4400                 0.3893
 IR Inten    --      8.0095                 6.2198                 0.8370

                     22                     23                     24
                      A                      A                      A
 Frequencies --    584.7306               659.6243               689.6670
 Red. masses --      3.6549                 3.6288                 4.6914
 Frc consts  --      0.7363                 0.9303                 1.3147
 IR Inten    --      9.1560                10.8188                48.6301

                     25                     26                     27
                      A                      A                      A
 Frequencies --    752.8839               786.3089               842.3524
 Red. masses --      2.4340                 5.1592                 1.5504
 Frc consts  --      0.8129                 1.8794                 0.6481
 IR Inten    --      3.2376                96.3449                10.9571

                     28                     29                     30
                      A                      A                      A
 Frequencies --    868.7004               894.4499               932.8481
 Red. masses --      2.4352                 1.4915                 2.2437
 Frc consts  --      1.0827                 0.7031                 1.1504
 IR Inten    --     11.7346                29.1350                53.5945

                     31                     32                     33
                      A                      A                      A
 Frequencies --    961.4818               975.7748               993.9663
 Red. masses --      2.0552                 1.5421                 1.3804
 Frc consts  --      1.1194                 0.8651                 0.8035
 IR Inten    --     31.9645                50.5662                19.6505

                     34                     35                     36
                      A                      A                      A
 Frequencies --    999.9633              1019.3213              1021.1263
 Red. masses --      1.4318                 1.6694                 1.5719
 Frc consts  --      0.8435                 1.0219                 0.9657
 IR Inten    --     32.1382                37.1666                20.6650

                     37                     38                     39
                      A                      A                      A
 Frequencies --   1045.2625              1090.9696              1104.4915
 Red. masses --      2.5253                 1.9105                 3.2659
 Frc consts  --      1.6256                 1.3398                 2.3473
 IR Inten    --     17.7341                 2.3598                38.9257

                     40                     41                     42
                      A                      A                      A
 Frequencies --   1123.2707              1137.8298              1153.4252
 Red. masses --      7.0442                 3.1186                 2.7225
 Frc consts  --      5.2366                 2.3788                 2.1340
 IR Inten    --     68.6205                39.9843                37.2005

                     43                     44                     45
                      A                      A                      A
 Frequencies --   1185.5324              1193.9159              1237.1741
 Red. masses --      2.2291                 1.3208                 1.7025
 Frc consts  --      1.8459                 1.1093                 1.5353
 IR Inten    --      9.6371                18.8609                13.1546

                     46                     47                     48
                      A                      A                      A
 Frequencies --   1275.7861              1293.0371              1306.3637
 Red. masses --      1.4169                 1.7410                 1.3079
 Frc consts  --      1.3587                 1.7150                 1.3151
 IR Inten    --     47.1670               103.6509                18.0907

                     49                     50                     51
                      A                      A                      A
 Frequencies --   1324.3730              1352.3691              1378.9398
 Red. masses --      2.4155                 1.2131                 1.3036
 Frc consts  --      2.4962                 1.3072                 1.4604
 IR Inten    --     75.4762                 3.4646                18.1641

                     52                     53                     54
                      A                      A                      A
 Frequencies --   1382.1252              1393.1257              1400.4707
 Red. masses --      1.2565                 1.4578                 1.3158
 Frc consts  --      1.4142                 1.6670                 1.5206
 IR Inten    --      4.8941                37.9292                 3.1191

                     55                     56                     57
                      A                      A                      A
 Frequencies --   1404.1048              1415.1432              1426.4545
 Red. masses --      1.4900                 1.4158                 1.4510
 Frc consts  --      1.7307                 1.6705                 1.7396
 IR Inten    --      3.0904                41.8155                26.0338

                     58                     59                     60
                      A                      A                      A
 Frequencies --   1459.7470              1468.0876              1485.5142
 Red. masses --      1.1779                 1.1679                 1.0489
 Frc consts  --      1.4788                 1.4830                 1.3638
 IR Inten    --     53.3209                26.5126                 5.6167

                     61                     62                     63
                      A                      A                      A
 Frequencies --   1486.5506              1488.8775              1497.2577
 Red. masses --      1.1593                 1.8782                 1.0887
 Frc consts  --      1.5094                 2.4531                 1.4380
 IR Inten    --      5.7608                55.7186                 4.1251

                     64                     65                     66
                      A                      A                      A
 Frequencies --   1508.6546              1514.3599              1522.5065
 Red. masses --      1.0994                 1.0850                 1.1156
 Frc consts  --      1.4743                 1.4660                 1.5236
 IR Inten    --      4.6988                 8.9745                 6.7570

                     67                     68                     69
                      A                      A                      A
 Frequencies --   1532.4166              1769.0401              2987.7099
 Red. masses --      1.1078                 7.2882                 1.0845
 Frc consts  --      1.5327                13.4383                 5.7036
 IR Inten    --      1.9369               407.8655                85.0834

                     70                     71                     72
                      A                      A                      A
 Frequencies --   3036.2201              3039.1623              3043.5385
 Red. masses --      1.0683                 1.0682                 1.0648
 Frc consts  --      5.8026                 5.8132                 5.8112
 IR Inten    --     17.0826                16.5483                14.5919

                     73                     74                     75
                      A                      A                      A
 Frequencies --   3048.8943              3052.2226              3087.5371
 Red. masses --      1.0670                 1.0745                 1.0946
 Frc consts  --      5.8436                 5.8978                 6.1478
 IR Inten    --      4.8188                30.1225                41.7513

                     76                     77                     78
                      A                      A                      A
 Frequencies --   3089.3698              3091.1816              3096.7922
 Red. masses --      1.0296                 1.1016                 1.1040
 Frc consts  --      5.7900                 6.2021                 6.2380
 IR Inten    --      0.4655                27.2089                56.2347

                     79                     80                     81
                      A                      A                      A
 Frequencies --   3107.0038              3118.7563              3161.4995
 Red. masses --      1.0615                 1.0989                 1.1057
 Frc consts  --      6.0373                 6.2974                 6.5111
 IR Inten    --     19.8791                27.1998                 6.9256

                     82                     83                     84
                      A                      A                      A
 Frequencies --   3185.2730              3202.6029              3420.1473
 Red. masses --      1.1064                 1.1078                 1.0741
 Frc consts  --      6.6138                 6.6946                 7.4026
 IR Inten    --      1.0086                 0.5313               159.3250

 - Thermochemistry -
 -------------------
 Temperature   298.150 Kelvin.  Pressure   1.00000 Atm.
 Atom     1 has atomic number  6 and mass  12.00000

 Molecular mass:   220.08816 amu.
 Principal axes and moments of inertia in atomic units:
                           1         2         3
     Eigenvalues --  1663.597564378.851114787.14655
           X            0.99975  -0.02023  -0.00988
           Y            0.01959   0.99796  -0.06069
           Z            0.01109   0.06048   0.99811
 This molecule is an asymmetric top.
 Rotational symmetry number  1.
 Warning -- assumption of classical behavior for rotation
           may cause significant error
 Rotational temperatures (Kelvin)      0.05206     0.01978     0.01809
 Rotational constants (GHZ):           1.08484     0.41215     0.37700
 Zero-point vibrational energy     671020.2 (Joules/Mol)
                                  160.37767 (Kcal/Mol)
 Warning -- explicit consideration of  22 degrees of freedom as
           vibrations may cause significant error
 Vibrational temperatures:     48.92    65.81   100.29   104.41   220.79
          (Kelvin)            272.55   303.83   346.70   348.02   384.49
                              422.01   433.37   448.08   541.19   577.93
                              602.34   626.75   680.61   703.58   723.39
                              789.13   841.30   949.05   992.28  1083.23
                             1131.32  1211.96  1249.87  1286.91  1342.16
                             1383.36  1403.92  1430.10  1438.72  1466.58
                             1469.17  1503.90  1569.66  1589.12  1616.14
                             1637.08  1659.52  1705.72  1717.78  1780.02
                             1835.57  1860.39  1879.57  1905.48  1945.76
                             1983.99  1988.57  2004.40  2014.97  2020.19
                             2036.08  2052.35  2100.25  2112.25  2137.32
                             2138.81  2142.16  2154.22  2170.62  2178.83
                             2190.55  2204.81  2545.25  4298.65  4368.44
                             4372.68  4378.97  4386.68  4391.47  4442.28
                             4444.91  4447.52  4455.59  4470.29  4487.19
                             4548.69  4582.90  4607.83  4920.83

 Zero-point correction=                           0.255578 (Hartree/Particle)
 Thermal correction to Energy=                    0.269677
 Thermal correction to Enthalpy=                  0.270621
 Thermal correction to Gibbs Free Energy=         0.214010
 Sum of electronic and zero-point Energies=          -1047.607325
 Sum of electronic and thermal Energies=             -1047.593226
 Sum of electronic and thermal Enthalpies=           -1047.592282
 Sum of electronic and thermal Free Energies=        -1047.648893

                     E (Thermal)             CV                S
                      KCal/Mol        Cal/Mol-Kelvin    Cal/Mol-Kelvin
 Total                  169.225             53.628            119.148
 Electronic               0.000              0.000              0.000
 Translational            0.889              2.981             42.069
 Rotational               0.889              2.981             31.923
 Vibrational            167.447             47.666             45.156
 Vibration     1          0.594              1.983              5.581
 Vibration     2          0.595              1.979              4.993
 Vibration     3          0.598              1.969              4.162
 Vibration     4          0.599              1.967              4.082
 Vibration     5          0.619              1.899              2.629
 Vibration     6          0.633              1.854              2.233
 Vibration     7          0.643              1.824              2.034
 Vibration     8          0.658              1.778              1.796
 Vibration     9          0.658              1.776              1.789
 Vibration    10          0.672              1.733              1.614
 Vibration    11          0.688              1.686              1.455
 Vibration    12          0.693              1.671              1.410
 Vibration    13          0.700              1.652              1.355
 Vibration    14          0.747              1.521              1.055
 Vibration    15          0.767              1.466              0.956
 Vibration    16          0.782              1.430              0.897
 Vibration    17          0.796              1.393              0.841
 Vibration    18          0.830              1.310              0.729
 Vibration    19          0.845              1.274              0.686
 Vibration    20          0.858              1.244              0.651
 Vibration    21          0.904              1.143              0.547
 Vibration    22          0.942              1.064              0.477

 Optimization completed.
    -- Stationary point found.
 Normal termination of Gaussian 16 at Thu Dec 10 09:43:23 2020.

 ----------------------------------------------------------------------
 # B3LYP/6-311++G(d,p) empiricaldispersion=gd3bj scf=xqc pop=npa geom=c
 heck
 ----------------------------------------------------------------------

 --------------------------------------
 CID_64991121_JID_4267_Energie_neutraal
 --------------------------------------
 Structure from the checkpoint file:  "JID_4267.chk"
 Charge =  0 Multiplicity = 1

 SCF Done:  E(RB3LYP) =  -1048.08088605     A.U. after   15 cycles
 Normal termination of Gaussian 16 at Thu Dec 10 09:47:39 2020.

 ----------------------------------------------------------------------
 # B3LYP/6-311++G(d,p) empiricaldispersion=gd3bj scf=xqc pop=npa geom=c
 heck
 ----------------------------------------------------------------------

 ------------------------------------
 CID_64991121_JID_4267_Energie_kation
 ------------------------------------
 Structure from the checkpoint file:  "JID_4267.chk"
 Charge =  1 Multiplicity = 2

 SCF Done:  E(UB3LYP) =  -1047.75816930     A.U. after   25 cycles
 Normal termination of Gaussian 16 at Thu Dec 10 09:57:56 2020.
 Gaussian 16:  ES64L-G16RevA.03 25-Dec-2016

 ----------------------------------------------------------------------
 # B3LYP/6-311++G(d,p) empiricaldispersion=gd3bj scf=xqc pop=npa geom=c
 heck
 ----------------------------------------------------------------------

 -----------------------------------
 CID_64991121_JID_4267_Energie_anion
 -----------------------------------
 Structure from the checkpoint file:  "JID_4267.chk"
 Charge = -1 Multiplicity = 2

                         Standard orientation:
 ---------------------------------------------------------------------
 Center     Atomic      Atomic             Coordinates (Angstroms)
 Number     Number       Type             X           Y           Z
 ---------------------------------------------------------------------
      1          6           0       -3.909065    0.090438   -0.099885
      2         16           0       -2.187471   -0.360360   -0.351591
      3          8           0       -2.047126   -1.815838   -0.207475
      4          8           0       -1.730320    0.297255   -1.586173
      5          7           0       -1.483945    0.336885    1.009721
      6          6           0       -0.250023   -0.298283    1.489931
      7          6           0        0.877606   -0.474431    0.463830
      8          6           0        2.108523   -1.142538    1.098984
      9          6           0        3.168313   -1.461593    0.035286
     10          6           0        3.520752   -0.217497   -0.790342
     11          6           0        2.254126    0.448714   -1.337753
     12          7           0        1.317524    0.742245   -0.250823
     13          6           0        1.028091    2.027399    0.056980
     14          8           0        0.290842    2.441300    0.950023
     15          1           0       -4.468201   -0.294485   -0.955381
     16          1           0       -3.986124    1.178661   -0.058501
     17          1           0       -4.255037   -0.361250    0.829882
     18          1           0       -1.287778    1.329791    0.845877
     19          1           0        0.082466    0.303454    2.336756
     20          1           0       -0.501361   -1.297781    1.852729
     21          1           0        0.495928   -1.146829   -0.315237
     22          1           0        1.796987   -2.061768    1.608780
     23          1           0        2.522435   -0.468257    1.860738
     24          1           0        4.067822   -1.875538    0.504836
     25          1           0        2.774477   -2.238807   -0.634404
     26          1           0        4.053160    0.508380   -0.161580
     27          1           0        4.186280   -0.480020   -1.621240
     28          1           0        2.490912    1.380754   -1.857917
     29          1           0        1.748675   -0.210415   -2.055733
     30          1           0        1.546747    2.730964   -0.619621
 ---------------------------------------------------------------------

 SCF Done:  E(UB3LYP) =  -1048.06782181     A.U. after   33 cycles
 SCF Done:  E(UB3LYP) =  -1048.06782181     a.u. after    1 cycles

 The electronic state is 2-A.
 Alpha  occ. eigenvalues --  -88.97028 -19.02434 -19.02227 -19.00714 -14.26357
 Alpha  occ. eigenvalues --  -14.24432 -10.18351 -10.12970 -10.12390 -10.11891
 Alpha  occ. eigenvalues --  -10.11637 -10.08540 -10.07843 -10.07820  -8.03249
 Alpha  occ. eigenvalues --   -5.99518  -5.99485  -5.99342  -1.02530  -0.95381
 Alpha  occ. eigenvalues --   -0.91382  -0.86565  -0.83409  -0.72042  -0.70034
 Alpha  occ. eigenvalues --   -0.67796  -0.61903  -0.58953  -0.55144  -0.53092
 Alpha  occ. eigenvalues --   -0.49858  -0.47126  -0.44256  -0.42874  -0.40633
 Alpha  occ. eigenvalues --   -0.39745  -0.38746  -0.37749  -0.37289  -0.36260
 Alpha  occ. eigenvalues --   -0.34643  -0.34322  -0.33902  -0.33350  -0.31806
 Alpha  occ. eigenvalues --   -0.31596  -0.29959  -0.29907  -0.26952  -0.25953
 Alpha  occ. eigenvalues --   -0.25663  -0.24645  -0.24244  -0.23268  -0.22279
 Alpha  occ. eigenvalues --   -0.21380  -0.18867  -0.17151  -0.16104   0.04170
 Alpha virt. eigenvalues --    0.05400   0.06885   0.07644   0.08092   0.08943
 Alpha virt. eigenvalues --    0.09300   0.09685   0.09814   0.10535   0.10896
 Alpha virt. eigenvalues --    0.11135   0.11716   0.12888   0.13411   0.13689

  Beta  occ. eigenvalues --  -88.97024 -19.02424 -19.02218 -19.00700 -14.26362
  Beta  occ. eigenvalues --  -14.24427 -10.18330 -10.12965 -10.12383 -10.11874
  Beta  occ. eigenvalues --  -10.11582 -10.08526 -10.07812 -10.07788  -8.03245
  Beta  occ. eigenvalues --   -5.99514  -5.99483  -5.99337  -1.02509  -0.95357
  Beta  occ. eigenvalues --   -0.91359  -0.86557  -0.83397  -0.72011  -0.69992
  Beta  occ. eigenvalues --   -0.67742  -0.61860  -0.58914  -0.55096  -0.53056
  Beta  occ. eigenvalues --   -0.49795  -0.47089  -0.44224  -0.42828  -0.40612
  Beta  occ. eigenvalues --   -0.39721  -0.38716  -0.37710  -0.37256  -0.36226
  Beta  occ. eigenvalues --   -0.34596  -0.34278  -0.33856  -0.33321  -0.31767
  Beta  occ. eigenvalues --   -0.31565  -0.29939  -0.29864  -0.26925  -0.25936
  Beta  occ. eigenvalues --   -0.25616  -0.24605  -0.24192  -0.23247  -0.22254
  Beta  occ. eigenvalues --   -0.21363  -0.18845  -0.17138  -0.16083
  Beta virt. eigenvalues --    0.06372   0.06807   0.07585   0.07959   0.08688
  Beta virt. eigenvalues --    0.09539   0.09834   0.09943   0.10359   0.11000
  Beta virt. eigenvalues --    0.11371   0.11491   0.11940   0.13170   0.13595

 Mulliken charges and spin densities:
               1          2
     1  C    0.356973  -0.984702
     2  S    0.387700  -0.135643
     3  O   -0.204330   0.013223
     4  O   -0.117911   0.013630
     5  N   -0.200847   0.108461
     6  C   -0.112872  -1.090015
     7  C    0.018626   0.244257
     8  C   -0.478350  -0.047315
     9  C   -0.405944   0.104965
    10  C    1.121053  -1.559520
    11  C    0.033198  -0.162931
    12  N    0.178199   0.104127
    13  C    0.428563  -0.284342
    14  O   -0.396203   0.002265
    15  H   -0.183049   0.391242
    16  H   -0.329004   0.539167
    17  H   -0.291508   0.509815
    18  H    0.345682  -0.042169
    19  H    0.152151   0.075728
    20  H    0.178376   0.052536
    21  H    0.290827  -0.051100
    22  H   -0.016396   0.171448
    23  H    0.013072   0.143466
    24  H   -0.920938   1.131703
    25  H    0.139326  -0.003138
    26  H    0.013806   0.122125
    27  H   -0.746848   0.938025
    28  H   -0.259028   0.429828
    29  H    0.124291   0.044780
    30  H   -0.118617   0.220087
 Sum of Mulliken charges =  -1.00000   1.00000

 Dipole moment (field-independent basis, Debye):
    X=             -2.7973    Y=              0.6697    Z=              1.8545  Tot=              3.4224
 Quadrupole moment (field-independent basis, Debye-Ang):
   XX=           -191.3230   YY=           -134.1401   ZZ=           -127.6535
   XY=              8.0408   XZ=              5.3486   YZ=             -0.6544

 Summary of Natural Population Analysis:

                                       Natural Population
                Natural  -----------------------------------------------
    Atom  No    Charge         Core      Valence    Rydberg      Total
 -----------------------------------------------------------------------
      C    1   -0.38618      0.99961     2.37924    0.00733     3.38618
      S    2    1.08752      4.99934     1.81368    0.09946     6.91248
      O    3   -0.46919      0.99991     3.46358    0.00571     4.46919
      O    4   -0.46627      0.99991     3.46058    0.00579     4.46627
      N    5   -0.44243      0.99975     2.93010    0.01258     3.94243
      C    6   -0.09551      0.99959     2.08408    0.01184     3.09551
      C    7   -0.01523      0.99955     2.00308    0.01260     3.01523
      C    8   -0.19232      0.99960     2.18333    0.00939     3.19232
      C    9   -0.18965      0.99963     2.18076    0.00927     3.18965
      C   10   -0.19464      0.99962     2.18601    0.00901     3.19464
      C   11   -0.08018      0.99960     2.06952    0.01106     3.08018
      N   12   -0.24794      0.99965     2.73639    0.01190     3.74794
      C   13    0.28127      0.99967     1.69814    0.02091     2.71873
      O   14   -0.33915      0.99988     3.33288    0.00639     4.33915
      H   15    0.11725      0.00000     0.38158    0.00117     0.38275
      H   16    0.11699      0.00000     0.38153    0.00148     0.38301
      H   17    0.11844      0.00000     0.38000    0.00156     0.38156
      H   18    0.21098      0.00000     0.28618    0.00285     0.28902
      H   19    0.11063      0.00000     0.38829    0.00107     0.38937
      H   20    0.10780      0.00000     0.39103    0.00117     0.39220
      H   21    0.10426      0.00000     0.39337    0.00236     0.39574
      H   22    0.10329      0.00000     0.39578    0.00093     0.39671
      H   23    0.09803      0.00000     0.40062    0.00135     0.40197
      H   24    0.10618      0.00000     0.39145    0.00238     0.39382
      H   25    0.09511      0.00000     0.40350    0.00139     0.40489
      H   26    0.09652      0.00000     0.40170    0.00178     0.40348
      H   27    0.10710      0.00000     0.38976    0.00315     0.39290
      H   28    0.10262      0.00000     0.39578    0.00160     0.39738
      H   29    0.09746      0.00000     0.40114    0.00140     0.40254
      H   30    0.05726      0.00000     0.44088    0.00187     0.44274
 =======================================================================
   * Total *   -0.00000     17.99532    40.74394    0.26074    59.00000

 Normal termination of Gaussian 16 at Thu Dec 10 10:13:01 2020.
