 Gaussian 16, Revision A.03,

 -----------------------------------------------------------
 # opt freq B3LYP/6-31G(d) empiricaldispersion=gd3bj scf=xqc
 -----------------------------------------------------------

 -------------------------------
 CID_131480528_JID_5855_neutraal
 -------------------------------
 Symbolic Z-matrix:
 Charge =  0 Multiplicity = 1

 SCF Done:  E(RB3LYP) =  -1041.40785664     A.U. after   15 cycles
 SCF Done:  E(RB3LYP) =  -1041.41175557     A.U. after   14 cycles
 SCF Done:  E(RB3LYP) =  -1041.41161869     A.U. after   14 cycles
 SCF Done:  E(RB3LYP) =  -1041.41231561     A.U. after   13 cycles
 SCF Done:  E(RB3LYP) =  -1041.41339117     A.U. after   13 cycles
 SCF Done:  E(RB3LYP) =  -1041.41355354     A.U. after   13 cycles
 SCF Done:  E(RB3LYP) =  -1041.41368085     A.U. after   11 cycles
 SCF Done:  E(RB3LYP) =  -1041.41378533     A.U. after   12 cycles
 SCF Done:  E(RB3LYP) =  -1041.41383455     A.U. after   12 cycles
 SCF Done:  E(RB3LYP) =  -1041.41387962     A.U. after   11 cycles
 SCF Done:  E(RB3LYP) =  -1041.41414378     A.U. after   10 cycles
 SCF Done:  E(RB3LYP) =  -1041.41414399     A.U. after   10 cycles
 SCF Done:  E(RB3LYP) =  -1041.41414401     A.U. after    8 cycles
 SCF Done:  E(RB3LYP) =  -1041.41414401     A.U. after    8 cycles
 Optimization completed.
    -- Stationary point found.
 Normal termination of Gaussian 16 at Thu Dec 10 17:41:42 2020.

 --------------------------------------------------------------------
 #N Geom=AllCheck Guess=TCheck SCRF=Check GenChk RB3LYP/6-31G(d) Freq
 --------------------------------------------------------------------

 Structure from the checkpoint file:  "JID_5855.chk"
 -------------------------------
 CID_131480528_JID_5855_neutraal
 -------------------------------
 Charge =  0 Multiplicity = 1

 SCF Done:  E(RB3LYP) =  -1041.41414401     A.U. after    1 cycles

  Exact polarizability: 160.229   2.247 122.669  10.707  -1.671 106.627
 Approx polarizability: 263.745   3.157 202.594  17.572  -2.473 171.096

                      1                      2                      3
                      A                      A                      A
 Frequencies --     13.6705                29.8681                52.8847
 Red. masses --      5.7914                 1.0357                 3.8097
 Frc consts  --      0.0006                 0.0005                 0.0063
 IR Inten    --      2.1192                 0.2882                 2.1429

                      4                      5                      6
                      A                      A                      A
 Frequencies --     67.6958                96.5656               118.8524
 Red. masses --      5.2301                 4.6853                 1.0910
 Frc consts  --      0.0141                 0.0257                 0.0091
 IR Inten    --      1.7480                 0.4035                 0.1607

                      7                      8                      9
                      A                      A                      A
 Frequencies --    139.1875               163.4311               178.3869
 Red. masses --      2.6430                 1.0942                 7.5224
 Frc consts  --      0.0302                 0.0172                 0.1410
 IR Inten    --      0.2900                 0.0584                 0.5093

                     10                     11                     12
                      A                      A                      A
 Frequencies --    224.5349               239.4968               287.8916
 Red. masses --      4.3251                 3.3470                 4.4374
 Frc consts  --      0.1285                 0.1131                 0.2167
 IR Inten    --      4.1682                 4.1695                 1.6619

                     13                     14                     15
                      A                      A                      A
 Frequencies --    310.8311               329.8832               370.2059
 Red. masses --      4.1983                 4.6865                 7.3408
 Frc consts  --      0.2390                 0.3005                 0.5928
 IR Inten    --      2.0239                 0.7075                 0.3016

                     16                     17                     18
                      A                      A                      A
 Frequencies --    408.2576               440.9534               513.6036
 Red. masses --      5.3266                 4.9347                 6.1767
 Frc consts  --      0.5231                 0.5653                 0.9600
 IR Inten    --      1.6554                 1.8167                 3.5731

                     19                     20                     21
                      A                      A                      A
 Frequencies --    560.7680               570.4664               580.5392
 Red. masses --      2.7711                 4.9820                 4.7353
 Frc consts  --      0.5134                 0.9552                 0.9403
 IR Inten    --     13.8781                 7.1260                 8.3789

                     22                     23                     24
                      A                      A                      A
 Frequencies --    582.4767               608.9589               641.6117
 Red. masses --      2.7286                 3.6798                 3.9101
 Frc consts  --      0.5454                 0.8040                 0.9484
 IR Inten    --     17.2135                12.2521                20.5485

                     25                     26                     27
                      A                      A                      A
 Frequencies --    715.8149               730.8588               760.2105
 Red. masses --      5.7530                 2.4898                 5.7772
 Frc consts  --      1.7368                 0.7836                 1.9671
 IR Inten    --      0.7025                40.2773                 1.8866

                     28                     29                     30
                      A                      A                      A
 Frequencies --    789.7760               799.6003               972.9738
 Red. masses --      8.7509                 5.1206                 2.4398
 Frc consts  --      3.2160                 1.9290                 1.3608
 IR Inten    --     23.0348                 3.2450                19.0012

                     31                     32                     33
                      A                      A                      A
 Frequencies --   1008.3550              1018.3635              1023.5044
 Red. masses --     10.4962                 2.2779                 3.1148
 Frc consts  --      6.2880                 1.3919                 1.9225
 IR Inten    --     19.6326                 2.3198                44.0985

                     34                     35                     36
                      A                      A                      A
 Frequencies --   1050.5306              1053.7131              1066.2292
 Red. masses --      1.9197                 1.8804                 1.4343
 Frc consts  --      1.2483                 1.2301                 0.9607
 IR Inten    --      0.5320                 6.6794                 0.4080

                     37                     38                     39
                      A                      A                      A
 Frequencies --   1071.7600              1137.5829              1187.2100
 Red. masses --      1.5016                 3.0143                 3.1486
 Frc consts  --      1.0162                 2.2983                 2.6147
 IR Inten    --      1.4368                45.4985                21.6325

                     40                     41                     42
                      A                      A                      A
 Frequencies --   1198.5188              1233.9508              1299.6947
 Red. masses --      3.7907                 5.4180                 7.1953
 Frc consts  --      3.2082                 4.8606                 7.1611
 IR Inten    --     11.6689                 9.8859                 4.8700

                     43                     44                     45
                      A                      A                      A
 Frequencies --   1342.0008              1382.2666              1414.1650
 Red. masses --     10.1922                 4.6163                 1.3481
 Frc consts  --     10.8149                 5.1967                 1.5885
 IR Inten    --      5.4177                19.1801                10.3620

                     46                     47                     48
                      A                      A                      A
 Frequencies --   1439.0438              1441.1768              1450.0857
 Red. masses --      1.3623                 1.2543                 2.5849
 Frc consts  --      1.6622                 1.5349                 3.2024
 IR Inten    --     10.2431                 0.2533                90.1460

                     49                     50                     51
                      A                      A                      A
 Frequencies --   1462.5418              1488.0281              1496.9271
 Red. masses --      4.9193                 1.0611                 1.5021
 Frc consts  --      6.1997                 1.3843                 1.9831
 IR Inten    --     13.2420                20.3150                 9.6405

                     52                     53                     54
                      A                      A                      A
 Frequencies --   1501.2579              1509.5883              1511.2562
 Red. masses --      1.0789                 1.0579                 1.0521
 Frc consts  --      1.4326                 1.4204                 1.4157
 IR Inten    --     15.0236                 8.4262                 9.1279

                     55                     56                     57
                      A                      A                      A
 Frequencies --   1518.1108              1526.9115              1551.9164
 Red. masses --      1.2350                 1.8697                 3.7334
 Frc consts  --      1.6769                 2.5683                 5.2977
 IR Inten    --      3.1524                10.5753                11.7087

                     58                     59                     60
                      A                      A                      A
 Frequencies --   1634.7300              1796.5550              3055.9432
 Red. masses --      7.6641                11.0178                 1.0377
 Frc consts  --     12.0671                20.9521                 5.7095
 IR Inten    --     24.1177               188.3313                26.4447

                     61                     62                     63
                      A                      A                      A
 Frequencies --   3056.1614              3065.7974              3109.0184
 Red. masses --      1.0379                 1.0368                 1.1005
 Frc consts  --      5.7116                 5.7413                 6.2674
 IR Inten    --      3.0130                 1.4897                11.7653

                     64                     65                     66
                      A                      A                      A
 Frequencies --   3111.6833              3126.9814              3146.7825
 Red. masses --      1.1012                 1.0990                 1.1009
 Frc consts  --      6.2822                 6.3314                 6.4230
 IR Inten    --      8.1451                 5.9896                 6.3975

                     67                     68                     69
                      A                      A                      A
 Frequencies --   3164.7577              3172.6226              3650.7185
 Red. masses --      1.1005                 1.1033                 1.0826
 Frc consts  --      6.4940                 6.5430                 8.5008
 IR Inten    --      6.9616                10.7166               123.5915

 - Thermochemistry -
 -------------------
 Temperature   298.150 Kelvin.  Pressure   1.00000 Atm.
 Atom     1 has atomic number  6 and mass  12.00000

 Molecular mass:   222.05753 amu.
 Principal axes and moments of inertia in atomic units:
                           1         2         3
     Eigenvalues --  2141.098044421.018964857.38757
           X            0.99996  -0.00432   0.00723
           Y            0.00493   0.99624  -0.08655
           Z           -0.00683   0.08658   0.99622
 This molecule is an asymmetric top.
 Rotational symmetry number  1.
 Warning -- assumption of classical behavior for rotation
           may cause significant error
 Rotational temperatures (Kelvin)      0.04045     0.01959     0.01783
 Rotational constants (GHZ):           0.84290     0.40822     0.37155
 Zero-point vibrational energy     495114.6 (Joules/Mol)
                                  118.33523 (Kcal/Mol)
 Warning -- explicit consideration of  23 degrees of freedom as
           vibrations may cause significant error
 Vibrational temperatures:     19.67    42.97    76.09    97.40   138.94
          (Kelvin)            171.00   200.26   235.14   256.66   323.06
                              344.58   414.21   447.22   474.63   532.64
                              587.39   634.43   738.96   806.82   820.77
                              835.27   838.05   876.16   923.14  1029.90
                             1051.54  1093.77  1136.31  1150.45  1399.89
                             1450.80  1465.20  1472.59  1511.48  1516.06
                             1534.07  1542.02  1636.73  1708.13  1724.40
                             1775.38  1869.97  1930.84  1988.77  2034.67
                             2070.46  2073.53  2086.35  2104.27  2140.94
                             2153.74  2159.98  2171.96  2174.36  2184.22
                             2196.89  2232.86  2352.01  2584.84  4396.82
                             4397.13  4411.00  4473.18  4477.02  4499.03
                             4527.52  4553.38  4564.70  5252.57

 Zero-point correction=                           0.188579 (Hartree/Particle)
 Thermal correction to Energy=                    0.203412
 Thermal correction to Enthalpy=                  0.204356
 Thermal correction to Gibbs Free Energy=         0.143936
 Sum of electronic and zero-point Energies=          -1041.225565
 Sum of electronic and thermal Energies=             -1041.210732
 Sum of electronic and thermal Enthalpies=           -1041.209788
 Sum of electronic and thermal Free Energies=        -1041.270208

                     E (Thermal)             CV                S
                      KCal/Mol        Cal/Mol-Kelvin    Cal/Mol-Kelvin
 Total                  127.643             52.585            127.165
 Electronic               0.000              0.000              0.000
 Translational            0.889              2.981             42.096
 Rotational               0.889              2.981             32.197
 Vibrational            125.865             46.623             52.872
 Vibration     1          0.593              1.986              7.390
 Vibration     2          0.594              1.984              5.838
 Vibration     3          0.596              1.976              4.706
 Vibration     4          0.598              1.970              4.219
 Vibration     5          0.603              1.952              3.522
 Vibration     6          0.609              1.934              3.119
 Vibration     7          0.615              1.914              2.815
 Vibration     8          0.623              1.887              2.510
 Vibration     9          0.629              1.869              2.345
 Vibration    10          0.649              1.804              1.922
 Vibration    11          0.657              1.780              1.807
 Vibration    12          0.685              1.696              1.486
 Vibration    13          0.700              1.653              1.358
 Vibration    14          0.713              1.616              1.261
 Vibration    15          0.742              1.533              1.079
 Vibration    16          0.773              1.452              0.933
 Vibration    17          0.801              1.381              0.824
 Vibration    18          0.869              1.220              0.625
 Vibration    19          0.916              1.116              0.522
 Vibration    20          0.927              1.095              0.503
 Vibration    21          0.937              1.073              0.484
 Vibration    22          0.939              1.069              0.481
 Vibration    23          0.968              1.013              0.435

                           ! Non-Optimized Parameters !
 Normal termination of Gaussian 16 at Thu Dec 10 17:49:58 2020.

 ----------------------------------------------------------------------
 # B3LYP/6-311++G(d,p) empiricaldispersion=gd3bj scf=xqc pop=npa geom=c
 heck
 ----------------------------------------------------------------------

 ---------------------------------------
 CID_131480528_JID_5855_Energie_neutraal
 ---------------------------------------
 Structure from the checkpoint file:  "JID_5855.chk"
 Charge =  0 Multiplicity = 1

 SCF Done:  E(RB3LYP) =  -1041.61455352     A.U. after   17 cycles
 Normal termination of Gaussian 16 at Thu Dec 10 17:53:16 2020.

 ----------------------------------------------------------------------
 # B3LYP/6-311++G(d,p) empiricaldispersion=gd3bj scf=xqc pop=npa geom=c
 heck
 ----------------------------------------------------------------------

 -------------------------------------
 CID_131480528_JID_5855_Energie_kation
 -------------------------------------
 Structure from the checkpoint file:  "JID_5855.chk"
 Charge =  1 Multiplicity = 2

 SCF Done:  E(UB3LYP) =  -1041.28524697     A.U. after   33 cycles
 SCF Done:  E(UB3LYP) =  -1041.28524697     a.u. after    1 cycles
 Normal termination of Gaussian 16 at Thu Dec 10 18:02:04 2020.
 Gaussian 16:  ES64L-G16RevA.03 25-Dec-2016

 ----------------------------------------------------------------------
 # B3LYP/6-311++G(d,p) empiricaldispersion=gd3bj scf=xqc pop=npa geom=c
 heck
 ----------------------------------------------------------------------

 ------------------------------------
 CID_131480528_JID_5855_Energie_anion
 ------------------------------------
 Structure from the checkpoint file:  "JID_5855.chk"
 Charge = -1 Multiplicity = 2

                         Standard orientation:
 ---------------------------------------------------------------------
 Center     Atomic      Atomic             Coordinates (Angstroms)
 Number     Number       Type             X           Y           Z
 ---------------------------------------------------------------------
      1          6           0       -1.433931    1.858045   -1.683380
      2          6           0       -1.633168    0.796827   -0.646726
      3          6           0       -0.720890    0.299279    0.254116
      4          6           0       -1.308858   -0.722490    1.085034
      5          7           0       -2.570859   -1.009540    0.844237
      6         16           0       -3.134421   -0.039040   -0.415816
      7          6           0       -0.579255   -1.433759    2.187661
      8          6           0        0.682516    0.726111    0.353799
      9          7           0        1.028485    1.877668    0.948666
     10          7           0        2.359347    1.872422    0.859138
     11          7           0        2.922474    0.835254    0.271899
     12          6           0        1.872191    0.069774   -0.074244
     13          6           0        2.086630   -1.209923   -0.811443
     14          8           0        3.207843   -1.664499   -0.944571
     15          6           0        0.870637   -1.898477   -1.400012
     16          1           0       -2.133078    2.689267   -1.540462
     17          1           0       -1.590431    1.464571   -2.694403
     18          1           0       -0.418600    2.257333   -1.620094
     19          1           0        0.302306   -1.964078    1.808947
     20          1           0       -0.226050   -0.718904    2.939740
     21          1           0       -1.245315   -2.153871    2.666314
     22          1           0        2.912708    2.635356    1.224770
     23          1           0        0.199910   -2.260522   -0.613260
     24          1           0        0.285274   -1.208055   -2.016895
     25          1           0        1.209904   -2.743417   -2.001440
 ---------------------------------------------------------------------

 SCF Done:  E(UB3LYP) =  -1041.62431388     A.U. after   33 cycles
 SCF Done:  E(UB3LYP) =  -1041.62431388     a.u. after    1 cycles

 The electronic state is 2-A.
 Alpha  occ. eigenvalues --  -88.76622 -18.93000 -14.27618 -14.21457 -14.19939
 Alpha  occ. eigenvalues --  -14.18715 -10.09421 -10.08555 -10.08020 -10.07638
 Alpha  occ. eigenvalues --  -10.07215 -10.06075 -10.05878 -10.04910 -10.02833
 Alpha  occ. eigenvalues --   -7.85115  -5.81503  -5.81025  -5.80648  -0.96727
 Alpha  occ. eigenvalues --   -0.87126  -0.83681  -0.75723  -0.70586  -0.68592
 Alpha  occ. eigenvalues --   -0.64982  -0.60155  -0.59907  -0.57323  -0.51097
 Alpha  occ. eigenvalues --   -0.49925  -0.43878  -0.41704  -0.40836  -0.38376
 Alpha  occ. eigenvalues --   -0.35374  -0.34299  -0.33145  -0.31766  -0.31401
 Alpha  occ. eigenvalues --   -0.31345  -0.30918  -0.29068  -0.27674  -0.26735
 Alpha  occ. eigenvalues --   -0.26272  -0.25991  -0.24648  -0.22989  -0.21413
 Alpha  occ. eigenvalues --   -0.19961  -0.17652  -0.16326  -0.15540  -0.14179
 Alpha  occ. eigenvalues --   -0.13609  -0.12464  -0.09137   0.04882
 Alpha virt. eigenvalues --    0.07702   0.07955   0.08969   0.09487   0.10730
 Alpha virt. eigenvalues --    0.11236   0.11876   0.12213   0.12548   0.12748
 Alpha virt. eigenvalues --    0.13846   0.14101   0.14728   0.15172   0.15610

  Beta  occ. eigenvalues --  -88.76607 -18.92583 -14.27413 -14.21538 -14.19828
  Beta  occ. eigenvalues --  -14.18123 -10.09389 -10.08331 -10.07708 -10.07622
  Beta  occ. eigenvalues --  -10.07231 -10.06076 -10.05877 -10.04873 -10.02857
  Beta  occ. eigenvalues --   -7.85101  -5.81498  -5.81023  -5.80592  -0.96343
  Beta  occ. eigenvalues --   -0.86351  -0.83523  -0.75270  -0.70250  -0.68326
  Beta  occ. eigenvalues --   -0.64849  -0.60033  -0.59619  -0.57250  -0.50644
  Beta  occ. eigenvalues --   -0.49727  -0.43644  -0.41507  -0.40630  -0.37814
  Beta  occ. eigenvalues --   -0.35283  -0.33436  -0.32886  -0.31574  -0.31278
  Beta  occ. eigenvalues --   -0.31134  -0.30672  -0.28465  -0.27610  -0.26353
  Beta  occ. eigenvalues --   -0.26189  -0.25704  -0.24422  -0.22839  -0.19878
  Beta  occ. eigenvalues --   -0.19521  -0.17365  -0.15802  -0.14437  -0.13418
  Beta  occ. eigenvalues --   -0.12667  -0.11663  -0.08768
  Beta virt. eigenvalues --    0.07908   0.08779   0.08951   0.09458   0.10725
  Beta virt. eigenvalues --    0.11324   0.11785   0.11902   0.12324   0.12623
  Beta virt. eigenvalues --    0.13325   0.13797   0.14103   0.14719   0.15155

 Mulliken charges and spin densities:
               1          2
     1  C   -0.151205  -0.077112
     2  C   -0.639193   0.186089
     3  C    2.876561  -0.118345
     4  C   -1.799996   0.086972
     5  N    0.108344   0.045216
     6  S    0.190149   0.075552
     7  C   -0.780081  -0.019656
     8  C   -0.996779   0.041258
     9  N   -0.165317  -0.046445
    10  N    0.129821   0.067048
    11  N   -0.226019   0.274172
    12  C   -0.288262   0.040482
    13  C   -0.111896   0.207612
    14  O   -0.367558   0.149623
    15  C   -0.366709  -0.029083
    16  H    0.139773   0.003866
    17  H    0.085441   0.074857
    18  H    0.191538   0.002464
    19  H    0.162103  -0.000197
    20  H    0.163163  -0.002212
    21  H    0.149229   0.001025
    22  H    0.290312  -0.004881
    23  H    0.145559   0.014905
    24  H    0.096201   0.024870
    25  H    0.164823   0.001918
 Sum of Mulliken charges =  -1.00000   1.00000

 Dipole moment (field-independent basis, Debye):
    X=             -4.1169    Y=              3.4872    Z=              0.8552  Tot=              5.4627
 Quadrupole moment (field-independent basis, Debye-Ang):
   XX=           -149.5859   YY=           -108.9087   ZZ=           -104.4538
   XY=              9.1901   XZ=             10.6774   YZ=             -4.1874

 Summary of Natural Population Analysis:

                                       Natural Population
                Natural  -----------------------------------------------
    Atom  No    Charge         Core      Valence    Rydberg      Total
 -----------------------------------------------------------------------
      C    1   -0.30262      0.99961     2.29744    0.00557     3.30262
      C    2   -0.04249      0.99946     2.02984    0.01320     3.04249
      C    3   -0.08482      0.99936     2.07093    0.01453     3.08482
      C    4    0.11506      0.99954     1.87003    0.01536     2.88494
      N    5   -0.31151      0.99969     2.79719    0.01463     3.81151
      S    6    0.27089      4.99939     2.70343    0.02628     7.72911
      C    7   -0.29989      0.99962     2.29595    0.00432     3.29989
      C    8    0.05452      0.99952     1.93116    0.01481     2.94548
      N    9   -0.17688      0.99971     2.66188    0.01529     3.67688
      N   10   -0.05258      0.99975     2.53717    0.01567     3.55258
      N   11   -0.03299      0.99971     2.52030    0.01298     3.53299
      C   12    0.00975      0.99949     1.97645    0.01430     2.99025
      C   13    0.29890      0.99966     1.68103    0.02041     2.70110
      O   14   -0.25473      0.99988     3.24748    0.00737     4.25473
      C   15   -0.32967      0.99964     2.32605    0.00398     3.32967
      H   16    0.10382      0.00000     0.39536    0.00081     0.39618
      H   17    0.10460      0.00000     0.39411    0.00129     0.39540
      H   18    0.11431      0.00000     0.38473    0.00096     0.38569
      H   19    0.10983      0.00000     0.38920    0.00096     0.39017
      H   20    0.10616      0.00000     0.39291    0.00092     0.39384
      H   21    0.10458      0.00000     0.39445    0.00097     0.39542
      H   22    0.18622      0.00000     0.31235    0.00143     0.31378
      H   23    0.10623      0.00000     0.39290    0.00087     0.39377
      H   24    0.10206      0.00000     0.39548    0.00246     0.39794
      H   25    0.10124      0.00000     0.39751    0.00125     0.39876
 =======================================================================
   * Total *    0.00000     18.99404    38.79533    0.21063    58.00000

 Normal termination of Gaussian 16 at Thu Dec 10 18:09:59 2020.
