 Gaussian 16, Revision A.03,

 -----------------------------------------------------------
 # opt freq B3LYP/6-31G(d) empiricaldispersion=gd3bj scf=xqc
 -----------------------------------------------------------

 ------------------------------
 CID_81968729_JID_5576_neutraal
 ------------------------------
 Symbolic Z-matrix:
 Charge =  0 Multiplicity = 1

 SCF Done:  E(RB3LYP) =  -1012.97778515     A.U. after   15 cycles
 SCF Done:  E(RB3LYP) =  -1012.98120328     A.U. after   12 cycles
 SCF Done:  E(RB3LYP) =  -1012.97963845     A.U. after   13 cycles
 SCF Done:  E(RB3LYP) =  -1012.98236152     A.U. after   12 cycles
 SCF Done:  E(RB3LYP) =  -1012.98293754     A.U. after   12 cycles
 SCF Done:  E(RB3LYP) =  -1012.98353182     A.U. after   12 cycles
 SCF Done:  E(RB3LYP) =  -1012.98387816     A.U. after   12 cycles
 SCF Done:  E(RB3LYP) =  -1012.98422281     A.U. after   12 cycles
 SCF Done:  E(RB3LYP) =  -1012.98432204     A.U. after   13 cycles
 SCF Done:  E(RB3LYP) =  -1012.98459942     A.U. after   12 cycles
 SCF Done:  E(RB3LYP) =  -1012.98580287     A.U. after    9 cycles
 SCF Done:  E(RB3LYP) =  -1012.98580453     A.U. after    9 cycles
 SCF Done:  E(RB3LYP) =  -1012.98580478     A.U. after    8 cycles
 SCF Done:  E(RB3LYP) =  -1012.98580494     A.U. after    8 cycles
 SCF Done:  E(RB3LYP) =  -1012.98580497     A.U. after    7 cycles
 Optimization completed.
    -- Stationary point found.
 Normal termination of Gaussian 16 at Thu Dec 10 16:52:12 2020.

 --------------------------------------------------------------------
 #N Geom=AllCheck Guess=TCheck SCRF=Check GenChk RB3LYP/6-31G(d) Freq
 --------------------------------------------------------------------

 Structure from the checkpoint file:  "JID_5576.chk"
 ------------------------------
 CID_81968729_JID_5576_neutraal
 ------------------------------
 Charge =  0 Multiplicity = 1

 SCF Done:  E(RB3LYP) =  -1012.98580497     A.U. after    1 cycles

  Exact polarizability: 150.827   4.189 140.621 -15.653   8.801 123.146
 Approx polarizability: 206.355   2.838 224.934 -39.312  25.376 216.533

                      1                      2                      3
                      A                      A                      A
 Frequencies --     29.2008                49.3627                57.1470
 Red. masses --      5.5465                 3.5659                 5.3742
 Frc consts  --      0.0028                 0.0051                 0.0103
 IR Inten    --      0.2266                 0.5608                 1.3384

                      4                      5                      6
                      A                      A                      A
 Frequencies --     79.4294                92.8444               120.8552
 Red. masses --      5.1115                 3.4734                 2.4135
 Frc consts  --      0.0190                 0.0176                 0.0208
 IR Inten    --      1.3227                 2.8710                 0.6236

                      7                      8                      9
                      A                      A                      A
 Frequencies --    147.6216               166.3433               182.3914
 Red. masses --      1.6874                 1.7551                 2.9474
 Frc consts  --      0.0217                 0.0286                 0.0578
 IR Inten    --      0.0891                 1.4719                 2.0992

                     10                     11                     12
                      A                      A                      A
 Frequencies --    206.0257               236.6066               242.1213
 Red. masses --      4.2471                 1.6299                 3.7068
 Frc consts  --      0.1062                 0.0538                 0.1280
 IR Inten    --      2.3034                 0.0263                 2.4726

                     13                     14                     15
                      A                      A                      A
 Frequencies --    280.0406               284.7334               341.5503
 Red. masses --      2.2028                 2.4739                 4.3730
 Frc consts  --      0.1018                 0.1182                 0.3006
 IR Inten    --      1.6824                 4.8344                 5.7117

                     16                     17                     18
                      A                      A                      A
 Frequencies --    355.7881               399.3628               435.0203
 Red. masses --      1.1095                 2.2815                 2.3929
 Frc consts  --      0.0827                 0.2144                 0.2668
 IR Inten    --     37.8450                 3.5858                10.4740

                     19                     20                     21
                      A                      A                      A
 Frequencies --    457.6034               472.7412               501.9277
 Red. masses --      2.4223                 3.6453                 3.7980
 Frc consts  --      0.2989                 0.4800                 0.5637
 IR Inten    --      5.0950                 4.4970                 5.9607

                     22                     23                     24
                      A                      A                      A
 Frequencies --    533.8225               571.1693               586.9823
 Red. masses --      3.1455                 4.0286                 3.5294
 Frc consts  --      0.5281                 0.7743                 0.7165
 IR Inten    --      8.4978                 1.9714                 5.0272

                     25                     26                     27
                      A                      A                      A
 Frequencies --    635.0617               672.5811               701.2816
 Red. masses --      6.0570                 3.8813                 1.5685
 Frc consts  --      1.4393                 1.0345                 0.4545
 IR Inten    --      3.9161                 7.1315                26.2321

                     28                     29                     30
                      A                      A                      A
 Frequencies --    718.2529               752.6573               786.6611
 Red. masses --      2.2798                 6.8841                 1.6269
 Frc consts  --      0.6929                 2.2977                 0.5932
 IR Inten    --     65.0045                 3.3057                 1.9694

                     31                     32                     33
                      A                      A                      A
 Frequencies --    801.4488               850.6800               861.3635
 Red. masses --      3.0367                 1.4796                 1.8925
 Frc consts  --      1.1492                 0.6308                 0.8273
 IR Inten    --      3.9639                13.4221                 8.6358

                     34                     35                     36
                      A                      A                      A
 Frequencies --    867.4281               908.5743               918.7531
 Red. masses --      3.1459                 2.3338                 1.3507
 Frc consts  --      1.3946                 1.1351                 0.6717
 IR Inten    --      9.7165                 5.2866                 2.7677

                     37                     38                     39
                      A                      A                      A
 Frequencies --    938.4867               947.4403               988.6734
 Red. masses --      2.2859                 1.4723                 2.0928
 Frc consts  --      1.1862                 0.7787                 1.2053
 IR Inten    --     48.3660               137.6990                84.1321

                     40                     41                     42
                      A                      A                      A
 Frequencies --   1004.3160              1061.1389              1069.8280
 Red. masses --      2.3297                 2.2500                 1.5897
 Frc consts  --      1.3845                 1.4927                 1.0720
 IR Inten    --     13.3545                 0.4937                 9.1244

                     43                     44                     45
                      A                      A                      A
 Frequencies --   1073.9949              1110.5185              1121.4085
 Red. masses --      1.4917                 1.3205                 1.6739
 Frc consts  --      1.0137                 0.9595                 1.2403
 IR Inten    --      0.2074                 6.4750                34.2782

                     46                     47                     48
                      A                      A                      A
 Frequencies --   1132.7302              1142.7252              1156.6149
 Red. masses --      1.5588                 1.6935                 1.3276
 Frc consts  --      1.1784                 1.3029                 1.0464
 IR Inten    --     60.3054                26.4107                 3.1188

                     49                     50                     51
                      A                      A                      A
 Frequencies --   1181.8509              1223.8886              1240.9251
 Red. masses --      2.6217                 1.9927                 1.4436
 Frc consts  --      2.1576                 1.7586                 1.3098
 IR Inten    --     29.2497                 9.6723                 4.9577

                     52                     53                     54
                      A                      A                      A
 Frequencies --   1255.1504              1277.7379              1295.4898
 Red. masses --      1.5280                 1.8434                 1.3537
 Frc consts  --      1.4183                 1.7731                 1.3386
 IR Inten    --      0.2373                35.1831                 9.1656

                     55                     56                     57
                      A                      A                      A
 Frequencies --   1321.6188              1348.0935              1382.7153
 Red. masses --      1.5767                 1.3454                 1.5346
 Frc consts  --      1.6226                 1.4406                 1.7287
 IR Inten    --     56.7801                22.1986                23.0667

                     58                     59                     60
                      A                      A                      A
 Frequencies --   1385.5035              1400.9166              1409.9710
 Red. masses --      1.3662                 1.4395                 1.7993
 Frc consts  --      1.5452                 1.6645                 2.1075
 IR Inten    --      6.9168                25.2358                 1.7286

                     61                     62                     63
                      A                      A                      A
 Frequencies --   1438.1053              1444.4624              1451.0674
 Red. masses --      1.5967                 1.2989                 1.5996
 Frc consts  --      1.9457                 1.5968                 1.9845
 IR Inten    --     54.7795                17.0200                21.2689

                     64                     65                     66
                      A                      A                      A
 Frequencies --   1490.6637              1496.8873              1499.8817
 Red. masses --      1.2068                 3.8928                 1.1513
 Frc consts  --      1.5800                 5.1391                 1.5260
 IR Inten    --      9.1368                 3.2048                 5.2504

                     67                     68                     69
                      A                      A                      A
 Frequencies --   1509.2017              1522.7512              1528.0036
 Red. masses --      1.2403                 1.0621                 1.0432
 Frc consts  --      1.6645                 1.4511                 1.4351
 IR Inten    --     28.1061                 5.4990                15.4507

                     70                     71                     72
                      A                      A                      A
 Frequencies --   1531.3001              1537.1341              1548.8651
 Red. masses --      1.0552                 1.0848                 1.1027
 Frc consts  --      1.4578                 1.5102                 1.5586
 IR Inten    --      0.5654                10.8289                49.7999

                     73                     74                     75
                      A                      A                      A
 Frequencies --   1601.5590              1708.7697              1724.7655
 Red. masses --      5.3928                 1.3065                 3.8202
 Frc consts  --      8.1498                 2.2477                 6.6957
 IR Inten    --      0.6323                90.5696               118.1491

                     76                     77                     78
                      A                      A                      A
 Frequencies --   3026.1980              3041.1212              3045.7396
 Red. masses --      1.0839                 1.0447                 1.0413
 Frc consts  --      5.8485                 5.6924                 5.6916
 IR Inten    --     34.0701                21.0862                26.1354

                     79                     80                     81
                      A                      A                      A
 Frequencies --   3053.9944              3067.7062              3089.3493
 Red. masses --      1.0700                 1.0606                 1.0667
 Frc consts  --      5.8796                 5.8804                 5.9983
 IR Inten    --     22.8818                17.2452                25.3771

                     82                     83                     84
                      A                      A                      A
 Frequencies --   3099.5831              3113.6157              3115.8210
 Red. masses --      1.0991                 1.0929                 1.1000
 Frc consts  --      6.2217                 6.2427                 6.2921
 IR Inten    --      1.8354                33.4341                40.5074

                     85                     86                     87
                      A                      A                      A
 Frequencies --   3125.6625              3130.1543              3159.0543
 Red. masses --      1.0972                 1.0976                 1.0995
 Frc consts  --      6.3154                 6.3361                 6.4650
 IR Inten    --     35.5920                45.7288                18.9700

                     88                     89                     90
                      A                      A                      A
 Frequencies --   3162.8694              3222.9887              3243.9048
 Red. masses --      1.0994                 1.0893                 1.0952
 Frc consts  --      6.4798                 6.6669                 6.7899
 IR Inten    --      0.5762                 6.2904                 0.3882

                     91                     92                     93
                      A                      A                      A
 Frequencies --   3272.5193              3452.4615              3536.6422
 Red. masses --      1.0971                 1.0497                 1.0911
 Frc consts  --      6.9223                 7.3721                 8.0410
 IR Inten    --      0.9631                12.0589                 7.8171

 - Thermochemistry -
 -------------------
 Temperature   298.150 Kelvin.  Pressure   1.00000 Atm.
 Atom     1 has atomic number  6 and mass  12.00000

 Molecular mass:   226.11399 amu.
 Principal axes and moments of inertia in atomic units:
                           1         2         3
     Eigenvalues --  2172.892644592.691175254.72939
           X            0.99994  -0.00256   0.01032
           Y            0.00241   0.99988   0.01500
           Z           -0.01035  -0.01497   0.99983
 This molecule is an asymmetric top.
 Rotational symmetry number  1.
 Warning -- assumption of classical behavior for rotation
           may cause significant error
 Rotational temperatures (Kelvin)      0.03986     0.01886     0.01648
 Rotational constants (GHZ):           0.83057     0.39296     0.34345
 Zero-point vibrational energy     746290.2 (Joules/Mol)
                                  178.36763 (Kcal/Mol)
 Warning -- explicit consideration of  24 degrees of freedom as
           vibrations may cause significant error
 Vibrational temperatures:     42.01    71.02    82.22   114.28   133.58
          (Kelvin)            173.88   212.39   239.33   262.42   296.43
                              340.42   348.36   402.92   409.67   491.41
                              511.90   574.59   625.90   658.39   680.17
                              722.16   768.05   821.79   844.54   913.71
                              967.69  1008.99  1033.41  1082.91  1131.83
                             1153.11  1223.94  1239.31  1248.04  1307.24
                             1321.88  1350.27  1363.16  1422.48  1444.99
                             1526.74  1539.24  1545.24  1597.79  1613.46
                             1629.75  1644.13  1664.11  1700.42  1760.90
                             1785.41  1805.88  1838.38  1863.92  1901.51
                             1939.61  1989.42  1993.43  2015.61  2028.63
                             2069.11  2078.26  2087.76  2144.73  2153.69
                             2158.00  2171.40  2190.90  2198.46  2203.20
                             2211.59  2228.47  2304.29  2458.54  2481.55
                             4354.02  4375.50  4382.14  4394.02  4413.75
                             4444.88  4459.61  4479.80  4482.97  4497.13
                             4503.59  4545.17  4550.66  4637.16  4667.26
                             4708.43  4967.32  5088.44

 Zero-point correction=                           0.284247 (Hartree/Particle)
 Thermal correction to Energy=                    0.300297
 Thermal correction to Enthalpy=                  0.301241
 Thermal correction to Gibbs Free Energy=         0.240149
 Sum of electronic and zero-point Energies=          -1012.701558
 Sum of electronic and thermal Energies=             -1012.685508
 Sum of electronic and thermal Enthalpies=           -1012.684564
 Sum of electronic and thermal Free Energies=        -1012.745656

                     E (Thermal)             CV                S
                      KCal/Mol        Cal/Mol-Kelvin    Cal/Mol-Kelvin
 Total                  188.439             60.239            128.578
 Electronic               0.000              0.000              0.000
 Translational            0.889              2.981             42.150
 Rotational               0.889              2.981             32.328
 Vibrational            186.662             54.277             54.101
 Vibration     1          0.593              1.984              5.883
 Vibration     2          0.595              1.978              4.843
 Vibration     3          0.596              1.975              4.553
 Vibration     4          0.600              1.963              3.905
 Vibration     5          0.602              1.954              3.599
 Vibration     6          0.609              1.932              3.087
 Vibration     7          0.617              1.905              2.703
 Vibration     8          0.624              1.884              2.476
 Vibration     9          0.630              1.864              2.304
 Vibration    10          0.641              1.831              2.079
 Vibration    11          0.655              1.785              1.828
 Vibration    12          0.658              1.776              1.787
 Vibration    13          0.680              1.711              1.533
 Vibration    14          0.683              1.702              1.505
 Vibration    15          0.721              1.592              1.205
 Vibration    16          0.731              1.563              1.140
 Vibration    17          0.765              1.471              0.965
 Vibration    18          0.796              1.394              0.842
 Vibration    19          0.816              1.344              0.773
 Vibration    20          0.830              1.311              0.730
 Vibration    21          0.857              1.246              0.653
 Vibration    22          0.889              1.175              0.579
 Vibration    23          0.927              1.094              0.502
 Vibration    24          0.944              1.060              0.473

 Optimization completed.
    -- Stationary point found.
 Normal termination of Gaussian 16 at Thu Dec 10 17:05:02 2020.

 ----------------------------------------------------------------------
 # B3LYP/6-311++G(d,p) empiricaldispersion=gd3bj scf=xqc pop=npa geom=c
 heck
 ----------------------------------------------------------------------

 --------------------------------------
 CID_81968729_JID_5576_Energie_neutraal
 --------------------------------------
 Structure from the checkpoint file:  "JID_5576.chk"
 Charge =  0 Multiplicity = 1

 SCF Done:  E(RB3LYP) =  -1013.19112892     A.U. after   15 cycles
 Normal termination of Gaussian 16 at Thu Dec 10 17:10:32 2020.

 ----------------------------------------------------------------------
 # B3LYP/6-311++G(d,p) empiricaldispersion=gd3bj scf=xqc pop=npa geom=c
 heck
 ----------------------------------------------------------------------

 ------------------------------------
 CID_81968729_JID_5576_Energie_kation
 ------------------------------------
 Structure from the checkpoint file:  "JID_5576.chk"
 Charge =  1 Multiplicity = 2

 SCF Done:  E(UB3LYP) =  -1012.89808302     A.U. after   30 cycles
 Normal termination of Gaussian 16 at Thu Dec 10 17:31:29 2020.
 Gaussian 16:  ES64L-G16RevA.03 25-Dec-2016

 ----------------------------------------------------------------------
 # B3LYP/6-311++G(d,p) empiricaldispersion=gd3bj scf=xqc pop=npa geom=c
 heck
 ----------------------------------------------------------------------

 -----------------------------------
 CID_81968729_JID_5576_Energie_anion
 -----------------------------------
 Structure from the checkpoint file:  "JID_5576.chk"
 Charge = -1 Multiplicity = 2

                         Standard orientation:
 ---------------------------------------------------------------------
 Center     Atomic      Atomic             Coordinates (Angstroms)
 Number     Number       Type             X           Y           Z
 ---------------------------------------------------------------------
      1          6           0       -0.789009    1.609605   -1.620375
      2          6           0       -1.761668    1.747275   -0.447247
      3          6           0       -2.896896    0.710158   -0.410732
      4          6           0       -2.387056   -0.755554   -0.566582
      5          6           0       -1.289259   -1.076213    0.436328
      6          8           0       -1.370296   -0.683143    1.603874
      7          7           0       -0.185004   -1.774918    0.010839
      8          6           0        0.017493   -2.243549   -1.353289
      9          6           0        0.999133   -1.709971    0.881508
     10          6           0        1.747742   -0.420033    0.695823
     11          6           0        1.546220    0.760738    1.362075
     12          6           0        2.324678    1.840877    0.845100
     13          6           0        3.105990    1.472938   -0.215364
     14         16           0        2.905550   -0.208613   -0.597405
     15          7           0       -3.697783    0.951857    0.790563
     16          1           0       -0.189807    0.696206   -1.546103
     17          1           0       -0.082225    2.445663   -1.635269
     18          1           0       -1.313917    1.595443   -2.584224
     19          1           0       -1.202205    1.682789    0.492690
     20          1           0       -2.234192    2.735404   -0.459683
     21          1           0       -3.547569    0.890630   -1.277894
     22          1           0       -3.231002   -1.435834   -0.392277
     23          1           0       -2.057868   -0.914713   -1.595398
     24          1           0        0.372965   -1.453679   -2.028118
     25          1           0        0.768627   -3.038231   -1.336881
     26          1           0       -0.902860   -2.669405   -1.755336
     27          1           0        0.653359   -1.777082    1.912940
     28          1           0        1.627385   -2.579019    0.666290
     29          1           0        0.840856    0.845874    2.179992
     30          1           0        2.304654    2.847096    1.248775
     31          1           0        3.797572    2.079669   -0.783594
     32          1           0       -4.517516    0.345130    0.779887
     33          1           0       -3.137393    0.650817    1.588407
 ---------------------------------------------------------------------

 SCF Done:  E(UB3LYP) =  -1013.17897271     A.U. after   33 cycles
 SCF Done:  E(UB3LYP) =  -1013.17933599     a.u. after    8 cycles

 The electronic state is 2-A.
 Alpha  occ. eigenvalues --  -88.77800 -18.98939 -14.24628 -14.18563 -10.17381
 Alpha  occ. eigenvalues --  -10.11622 -10.10414 -10.10222 -10.10216 -10.10139
 Alpha  occ. eigenvalues --  -10.08312 -10.07643 -10.07476 -10.06114 -10.05813
 Alpha  occ. eigenvalues --   -7.86427  -5.82704  -5.82341  -5.82041  -0.94187
 Alpha  occ. eigenvalues --   -0.83989  -0.78757  -0.78373  -0.68112  -0.66693
 Alpha  occ. eigenvalues --   -0.63926  -0.63530  -0.61054  -0.58184  -0.54654
 Alpha  occ. eigenvalues --   -0.48354  -0.47072  -0.45169  -0.43495  -0.41484
 Alpha  occ. eigenvalues --   -0.40348  -0.39196  -0.38145  -0.36551  -0.34966
 Alpha  occ. eigenvalues --   -0.34431  -0.32905  -0.31362  -0.31220  -0.30822
 Alpha  occ. eigenvalues --   -0.30429  -0.30074  -0.29039  -0.28555  -0.27286
 Alpha  occ. eigenvalues --   -0.26998  -0.25629  -0.25373  -0.24665  -0.23208
 Alpha  occ. eigenvalues --   -0.22963  -0.16797  -0.16014  -0.15313  -0.14128
 Alpha  occ. eigenvalues --   -0.13660   0.04368
 Alpha virt. eigenvalues --    0.06147   0.06481   0.07173   0.07995   0.08314
 Alpha virt. eigenvalues --    0.08823   0.09785   0.10034   0.10131   0.10337
 Alpha virt. eigenvalues --    0.11102   0.11829   0.12193   0.12637   0.12737

  Beta  occ. eigenvalues --  -88.77786 -18.98938 -14.24619 -14.18556 -10.17381
  Beta  occ. eigenvalues --  -10.11606 -10.10350 -10.10207 -10.10163 -10.10085
  Beta  occ. eigenvalues --  -10.08307 -10.07637 -10.07448 -10.06112 -10.05796
  Beta  occ. eigenvalues --   -7.86412  -5.82697  -5.82332  -5.82003  -0.94181
  Beta  occ. eigenvalues --   -0.83964  -0.78738  -0.78304  -0.68071  -0.66633
  Beta  occ. eigenvalues --   -0.63870  -0.63481  -0.60968  -0.58134  -0.54613
  Beta  occ. eigenvalues --   -0.48310  -0.46999  -0.45114  -0.43421  -0.41432
  Beta  occ. eigenvalues --   -0.40303  -0.39143  -0.38112  -0.36513  -0.34928
  Beta  occ. eigenvalues --   -0.34408  -0.32862  -0.31318  -0.31177  -0.30787
  Beta  occ. eigenvalues --   -0.30403  -0.30031  -0.28987  -0.28471  -0.27192
  Beta  occ. eigenvalues --   -0.26960  -0.25602  -0.25345  -0.24598  -0.23191
  Beta  occ. eigenvalues --   -0.22944  -0.16755  -0.15865  -0.15250  -0.14030
  Beta  occ. eigenvalues --   -0.13488
  Beta virt. eigenvalues --    0.06431   0.06859   0.07101   0.08054   0.08249
  Beta virt. eigenvalues --    0.08532   0.09543   0.10062   0.10150   0.10376
  Beta virt. eigenvalues --    0.10690   0.11277   0.12148   0.12492   0.12828

 Mulliken charges and spin densities:
               1          2
     1  C    0.070398  -0.610002
     2  C   -0.253762   0.461628
     3  C    0.271939  -1.092720
     4  C    0.832952  -1.037067
     5  C   -0.919022   0.870376
     6  O   -0.346237   0.009087
     7  N    0.000853   0.201866
     8  C    1.379901  -1.734127
     9  C    0.851838  -1.741046
    10  C   -0.228698   0.829161
    11  C   -1.216498   0.951778
    12  C    0.629350  -0.954047
    13  C   -0.803749   0.494633
    14  S    0.780398  -0.622316
    15  N   -0.250958   0.031191
    16  H    0.159963  -0.142888
    17  H    0.066490   0.042703
    18  H   -0.185090   0.334480
    19  H    0.064612   0.033505
    20  H    0.173735   0.027284
    21  H   -0.176959   0.368396
    22  H   -0.499161   0.738487
    23  H    0.459729  -0.316573
    24  H   -0.190977   0.380914
    25  H   -0.568693   0.735963
    26  H   -1.034365   1.194394
    27  H    0.172312   0.037693
    28  H   -0.701719   0.907329
    29  H    0.115939   0.094833
    30  H    0.066828   0.078964
    31  H   -0.128954   0.362660
    32  H    0.160233   0.052483
    33  H    0.247372   0.010978
 Sum of Mulliken charges =  -1.00000   1.00000

 Dipole moment (field-independent basis, Debye):
    X=              2.3408    Y=              5.4977    Z=              2.6709  Tot=              6.5451
 Quadrupole moment (field-independent basis, Debye-Ang):
   XX=           -156.2683   YY=           -156.2889   ZZ=           -137.9623
   XY=              4.4359   XZ=             -3.3349   YZ=             -8.1516

 Summary of Natural Population Analysis:

                                       Natural Population
                Natural  -----------------------------------------------
    Atom  No    Charge         Core      Valence    Rydberg      Total
 -----------------------------------------------------------------------
      C    1   -0.28752      0.99966     2.28255    0.00531     3.28752
      C    2   -0.19749      0.99961     2.18884    0.00904     3.19749
      C    3   -0.00584      0.99961     1.99296    0.01327     3.00584
      C    4   -0.24235      0.99957     2.23258    0.01020     3.24235
      C    5    0.35377      0.99962     1.62276    0.02385     2.64623
      O    6   -0.34232      0.99988     3.33733    0.00511     4.34232
      N    7   -0.25421      0.99965     2.73831    0.01626     3.75421
      C    8   -0.17951      0.99961     2.17063    0.00927     3.17951
      C    9   -0.10222      0.99953     2.08854    0.01415     3.10222
      C   10   -0.09818      0.99948     2.08511    0.01359     3.09818
      C   11   -0.12497      0.99945     2.11621    0.00931     3.12497
      C   12   -0.12844      0.99953     2.11905    0.00986     3.12844
      C   13   -0.18899      0.99954     2.17885    0.01060     3.18899
      S   14    0.20803      4.99940     2.77255    0.02003     7.79197
      N   15   -0.42670      0.99977     2.91760    0.00933     3.92670
      H   16    0.09786      0.00000     0.40055    0.00160     0.40214
      H   17    0.10054      0.00000     0.39848    0.00098     0.39946
      H   18    0.09423      0.00000     0.40477    0.00100     0.40577
      H   19    0.10191      0.00000     0.39670    0.00139     0.39809
      H   20    0.09850      0.00000     0.40041    0.00109     0.40150
      H   21    0.08873      0.00000     0.40952    0.00174     0.41127
      H   22    0.11331      0.00000     0.38498    0.00171     0.38669
      H   23    0.10888      0.00000     0.38911    0.00201     0.39112
      H   24    0.09432      0.00000     0.40366    0.00203     0.40568
      H   25    0.10446      0.00000     0.39247    0.00307     0.39554
      H   26    0.10589      0.00000     0.39197    0.00214     0.39411
      H   27    0.12032      0.00000     0.37840    0.00128     0.37968
      H   28    0.10599      0.00000     0.39233    0.00168     0.39401
      H   29    0.11479      0.00000     0.38412    0.00109     0.38521
      H   30    0.10421      0.00000     0.39493    0.00086     0.39579
      H   31    0.10740      0.00000     0.39176    0.00084     0.39260
      H   32    0.16937      0.00000     0.32901    0.00162     0.33063
      H   33    0.18622      0.00000     0.31176    0.00202     0.31378
 =======================================================================
   * Total *   -0.00000     18.99389    41.79879    0.20731    61.00000

 Normal termination of Gaussian 16 at Thu Dec 10 19:15:06 2020.
