 Gaussian 16, Revision A.03,

 -----------------------------------------------------------
 # opt freq B3LYP/6-31G(d) empiricaldispersion=gd3bj scf=xqc
 -----------------------------------------------------------

 -------------------------------
 CID_137464729_JID_5717_neutraal
 -------------------------------
 Symbolic Z-matrix:
 Charge =  0 Multiplicity = 1

 SCF Done:  E(RB3LYP) =  -727.126221721     A.U. after   15 cycles
 SCF Done:  E(RB3LYP) =  -727.130762003     A.U. after   12 cycles
 SCF Done:  E(RB3LYP) =  -727.131397568     A.U. after   13 cycles
 SCF Done:  E(RB3LYP) =  -727.132333936     A.U. after   12 cycles
 SCF Done:  E(RB3LYP) =  -727.132165093     A.U. after   13 cycles
 SCF Done:  E(RB3LYP) =  -727.133078510     A.U. after   12 cycles
 SCF Done:  E(RB3LYP) =  -727.133174713     A.U. after   12 cycles
 SCF Done:  E(RB3LYP) =  -727.133252342     A.U. after   11 cycles
 SCF Done:  E(RB3LYP) =  -727.133302761     A.U. after   11 cycles
 SCF Done:  E(RB3LYP) =  -727.133320308     A.U. after   10 cycles
 SCF Done:  E(RB3LYP) =  -727.133353673     A.U. after   11 cycles
 SCF Done:  E(RB3LYP) =  -727.133356904     A.U. after   10 cycles
 SCF Done:  E(RB3LYP) =  -727.133357537     A.U. after    8 cycles
 SCF Done:  E(RB3LYP) =  -727.133357602     A.U. after    8 cycles
 SCF Done:  E(RB3LYP) =  -727.133357647     A.U. after    7 cycles
 Optimization completed.
    -- Stationary point found.
 Normal termination of Gaussian 16 at Thu Dec 10 16:44:39 2020.

 --------------------------------------------------------------------
 #N Geom=AllCheck Guess=TCheck SCRF=Check GenChk RB3LYP/6-31G(d) Freq
 --------------------------------------------------------------------

 Structure from the checkpoint file:  "JID_5717.chk"
 -------------------------------
 CID_137464729_JID_5717_neutraal
 -------------------------------
 Charge =  0 Multiplicity = 1

 SCF Done:  E(RB3LYP) =  -727.133357647     A.U. after    1 cycles

  Exact polarizability: 152.902   4.796 136.690   3.213  -0.049  92.557
 Approx polarizability: 186.671  -2.423 214.049   8.108   2.722 141.642

                      1                      2                      3
                      A                      A                      A
 Frequencies --     27.8476                28.0698                39.0872
 Red. masses --      5.0319                 5.3892                 5.3086
 Frc consts  --      0.0023                 0.0025                 0.0048
 IR Inten    --      0.7125                 0.2784                 0.7350

                      4                      5                      6
                      A                      A                      A
 Frequencies --     48.3307                67.7242                75.8793
 Red. masses --      5.7576                 5.3839                 4.3851
 Frc consts  --      0.0079                 0.0145                 0.0149
 IR Inten    --      0.5030                 0.9232                 0.4316

                      7                      8                      9
                      A                      A                      A
 Frequencies --    113.2545               118.4639               155.1047
 Red. masses --      1.9521                 2.9970                 3.0432
 Frc consts  --      0.0148                 0.0248                 0.0431
 IR Inten    --      2.2595                 0.6510                 0.7257

                     10                     11                     12
                      A                      A                      A
 Frequencies --    198.1588               206.6621               215.5608
 Red. masses --      2.8513                 3.0567                 1.4180
 Frc consts  --      0.0660                 0.0769                 0.0388
 IR Inten    --      0.3592                 2.8720                 1.9681

                     13                     14                     15
                      A                      A                      A
 Frequencies --    242.3858               258.2445               290.5801
 Red. masses --      3.1058                 1.6613                 2.4280
 Frc consts  --      0.1075                 0.0653                 0.1208
 IR Inten    --      3.0939                29.2427                10.4162

                     16                     17                     18
                      A                      A                      A
 Frequencies --    327.3959               333.3638               347.0395
 Red. masses --      2.3123                 2.4481                 2.6411
 Frc consts  --      0.1460                 0.1603                 0.1874
 IR Inten    --      8.1656                 4.5502                10.3333

                     19                     20                     21
                      A                      A                      A
 Frequencies --    401.1551               427.2390               482.6559
 Red. masses --      2.7560                 2.4119                 3.7125
 Frc consts  --      0.2613                 0.2594                 0.5096
 IR Inten    --      1.9946                 1.9592                20.7885

                     22                     23                     24
                      A                      A                      A
 Frequencies --    514.2853               555.3758               603.4300
 Red. masses --      3.5311                 2.8269                 1.8869
 Frc consts  --      0.5503                 0.5137                 0.4048
 IR Inten    --      4.3482                13.2180                56.0626

                     25                     26                     27
                      A                      A                      A
 Frequencies --    625.8975               638.1676               643.6185
 Red. masses --      1.9838                 1.4336                 2.7712
 Frc consts  --      0.4579                 0.3440                 0.6764
 IR Inten    --      6.3668                74.9901                22.6957

                     28                     29                     30
                      A                      A                      A
 Frequencies --    708.3328               735.2975               774.5318
 Red. masses --      1.9678                 1.8006                 3.2859
 Frc consts  --      0.5817                 0.5736                 1.1614
 IR Inten    --     51.8105                41.8589                30.4309

                     31                     32                     33
                      A                      A                      A
 Frequencies --    791.3007               832.8630               843.6586
 Red. masses --      2.1154                 2.4612                 2.5529
 Frc consts  --      0.7804                 1.0059                 1.0706
 IR Inten    --     18.8562                26.0083                19.4458

                     34                     35                     36
                      A                      A                      A
 Frequencies --    864.3723               916.5501               953.1136
 Red. masses --      2.4963                 1.7231                 2.0404
 Frc consts  --      1.0989                 0.8529                 1.0921
 IR Inten    --      3.4081                37.8304                 4.3222

                     37                     38                     39
                      A                      A                      A
 Frequencies --    958.4927               982.5562              1002.7440
 Red. masses --      1.7587                 2.0913                 1.5853
 Frc consts  --      0.9519                 1.1895                 0.9391
 IR Inten    --    125.7332                13.6614                10.0587

                     40                     41                     42
                      A                      A                      A
 Frequencies --   1018.3638              1055.2123              1079.9003
 Red. masses --      1.1861                 1.8935                 1.6071
 Frc consts  --      0.7247                 1.2422                 1.1042
 IR Inten    --     25.9222                 6.0287                10.4508

                     43                     44                     45
                      A                      A                      A
 Frequencies --   1082.9710              1120.2531              1128.5127
 Red. masses --      1.5635                 2.8896                 1.8856
 Frc consts  --      1.0804                 2.1366                 1.4148
 IR Inten    --      2.0069                 4.7540                 2.1167

                     46                     47                     48
                      A                      A                      A
 Frequencies --   1140.0716              1156.2265              1167.1397
 Red. masses --      2.0716                 2.7882                 2.3651
 Frc consts  --      1.5864                 2.1961                 1.8982
 IR Inten    --     14.9525               110.2702               114.5609

                     49                     50                     51
                      A                      A                      A
 Frequencies --   1192.5985              1214.9377              1261.2141
 Red. masses --      1.5423                 1.2656                 1.4308
 Frc consts  --      1.2924                 1.1006                 1.3409
 IR Inten    --     30.4520                 7.1969                30.3297

                     52                     53                     54
                      A                      A                      A
 Frequencies --   1297.4754              1313.4209              1315.6350
 Red. masses --      1.3988                 1.2971                 1.3689
 Frc consts  --      1.3875                 1.3184                 1.3960
 IR Inten    --     25.8785                 1.5305                15.8431

                     55                     56                     57
                      A                      A                      A
 Frequencies --   1343.5917              1347.8596              1376.4282
 Red. masses --      1.2582                 1.1857                 1.6611
 Frc consts  --      1.3382                 1.2691                 1.8542
 IR Inten    --      0.1054                12.8902               157.8959

                     58                     59                     60
                      A                      A                      A
 Frequencies --   1379.6076              1390.3460              1410.6967
 Red. masses --      1.5436                 1.6510                 1.5467
 Frc consts  --      1.7310                 1.8803                 1.8135
 IR Inten    --      5.2496                31.9913                16.4495

                     61                     62                     63
                      A                      A                      A
 Frequencies --   1416.5630              1437.3597              1441.1941
 Red. masses --      1.4615                 1.4549                 1.2908
 Frc consts  --      1.7279                 1.7710                 1.5796
 IR Inten    --      8.2823                32.2779                10.6065

                     64                     65                     66
                      A                      A                      A
 Frequencies --   1442.8268              1495.2968              1508.0627
 Red. masses --      1.5050                 1.6594                 1.0461
 Frc consts  --      1.8459                 2.1860                 1.4017
 IR Inten    --      2.6283                74.7975                 6.4786

                     67                     68                     69
                      A                      A                      A
 Frequencies --   1511.3732              1516.9377              1521.1357
 Red. masses --      1.0919                 1.0599                 1.0975
 Frc consts  --      1.4696                 1.4370                 1.4962
 IR Inten    --      0.7909                 7.9282                 6.0579

                     70                     71                     72
                      A                      A                      A
 Frequencies --   1528.1931              1533.0603              1708.0722
 Red. masses --      1.0895                 1.0937                 1.0886
 Frc consts  --      1.4991                 1.5145                 1.8713
 IR Inten    --      8.8821                 5.7649                26.5441

                     73                     74                     75
                      A                      A                      A
 Frequencies --   1727.5062              1770.7502              1841.8797
 Red. masses --      6.2598                 7.0421                 9.5863
 Frc consts  --     11.0064                13.0098                19.1613
 IR Inten    --     78.1404               358.1658               257.6017

                     76                     77                     78
                      A                      A                      A
 Frequencies --   3036.2414              3037.2947              3046.7895
 Red. masses --      1.0386                 1.0713                 1.0634
 Frc consts  --      5.6414                 5.8228                 5.8160
 IR Inten    --     28.9506                28.2236                 8.5774

                     79                     80                     81
                      A                      A                      A
 Frequencies --   3051.0135              3058.3682              3080.7987
 Red. masses --      1.0618                 1.0616                 1.1014
 Frc consts  --      5.8237                 5.8507                 6.1590
 IR Inten    --     36.3555                15.9925                 3.9955

                     82                     83                     84
                      A                      A                      A
 Frequencies --   3083.7578              3088.5907              3099.1778
 Red. masses --      1.0998                 1.0928                 1.1004
 Frc consts  --      6.1620                 6.1419                 6.2270
 IR Inten    --     18.4817                30.4335                66.2461

                     85                     86                     87
                      A                      A                      A
 Frequencies --   3103.2213              3126.8291              3140.6347
 Red. masses --      1.0939                 1.1000                 1.0919
 Frc consts  --      6.2066                 6.3365                 6.3456
 IR Inten    --     45.6296                12.2496                11.7520

                     88                     89                     90
                      A                      A                      A
 Frequencies --   3172.5810              3187.6046              3460.1243
 Red. masses --      1.0904                 1.0880                 1.0500
 Frc consts  --      6.4661                 6.5132                 7.4068
 IR Inten    --     11.3030                14.5504                 0.7580

                     91                     92                     93
                      A                      A                      A
 Frequencies --   3541.7333              3580.5681              3667.0033
 Red. masses --      1.0916                 1.0751                 1.0639
 Frc consts  --      8.0673                 8.1206                 8.4293
 IR Inten    --      1.4998                15.1135                42.4729

 - Thermochemistry -
 -------------------
 Temperature   298.150 Kelvin.  Pressure   1.00000 Atm.
 Atom     1 has atomic number  6 and mass  12.00000

 Molecular mass:   214.13174 amu.
 Principal axes and moments of inertia in atomic units:
                           1         2         3
     Eigenvalues --  1597.351418082.321939101.26824
           X            0.99970   0.02453   0.00157
           Y           -0.02452   0.99969  -0.00342
           Z           -0.00165   0.00338   0.99999
 This molecule is an asymmetric top.
 Rotational symmetry number  1.
 Warning -- assumption of classical behavior for rotation
           may cause significant error
 Rotational temperatures (Kelvin)      0.05422     0.01072     0.00952
 Rotational constants (GHZ):           1.12983     0.22329     0.19830
 Zero-point vibrational energy     748286.9 (Joules/Mol)
                                  178.84486 (Kcal/Mol)
 Warning -- explicit consideration of  24 degrees of freedom as
           vibrations may cause significant error
 Vibrational temperatures:     40.07    40.39    56.24    69.54    97.44
          (Kelvin)            109.17   162.95   170.44   223.16   285.11
                              297.34   310.14   348.74   371.56   418.08
                              471.05   479.64   499.31   577.17   614.70
                              694.43   739.94   799.06   868.20   900.53
                              918.18   926.02  1019.13  1057.93  1114.38
                             1138.51  1198.30  1213.84  1243.64  1318.71
                             1371.32  1379.06  1413.68  1442.72  1465.20
                             1518.22  1553.74  1558.15  1611.79  1623.68
                             1640.31  1663.55  1679.25  1715.88  1748.02
                             1814.61  1866.78  1889.72  1892.91  1933.13
                             1939.27  1980.37  1984.95  2000.40  2029.68
                             2038.12  2068.04  2073.56  2075.91  2151.40
                             2169.77  2174.53  2182.53  2188.57  2198.73
                             2205.73  2457.53  2485.50  2547.71  2650.05
                             4368.47  4369.99  4383.65  4389.73  4400.31
                             4432.58  4436.84  4443.79  4459.03  4464.84
                             4498.81  4518.67  4564.64  4586.25  4978.35
                             5095.76  5151.64  5276.00

 Zero-point correction=                           0.285007 (Hartree/Particle)
 Thermal correction to Energy=                    0.302126
 Thermal correction to Enthalpy=                  0.303070
 Thermal correction to Gibbs Free Energy=         0.237667
 Sum of electronic and zero-point Energies=           -726.848350
 Sum of electronic and thermal Energies=              -726.831232
 Sum of electronic and thermal Enthalpies=            -726.830288
 Sum of electronic and thermal Free Energies=         -726.895691

                     E (Thermal)             CV                S
                      KCal/Mol        Cal/Mol-Kelvin    Cal/Mol-Kelvin
 Total                  189.587             61.480            137.653
 Electronic               0.000              0.000              0.000
 Translational            0.889              2.981             41.988
 Rotational               0.889              2.981             33.130
 Vibrational            187.809             55.519             62.536
 Vibration     1          0.593              1.984              5.977
 Vibration     2          0.593              1.984              5.961
 Vibration     3          0.594              1.981              5.305
 Vibration     4          0.595              1.978              4.885
 Vibration     5          0.598              1.970              4.218
 Vibration     6          0.599              1.965              3.995
 Vibration     7          0.607              1.938              3.212
 Vibration     8          0.609              1.934              3.125
 Vibration     9          0.620              1.897              2.609
 Vibration    10          0.637              1.842              2.150
 Vibration    11          0.641              1.830              2.073
 Vibration    12          0.645              1.817              1.996
 Vibration    13          0.659              1.775              1.785
 Vibration    14          0.667              1.749              1.674
 Vibration    15          0.687              1.691              1.471
 Vibration    16          0.711              1.621              1.273
 Vibration    17          0.715              1.609              1.244
 Vibration    18          0.725              1.581              1.180
 Vibration    19          0.767              1.468              0.958
 Vibration    20          0.789              1.411              0.868
 Vibration    21          0.839              1.289              0.703
 Vibration    22          0.869              1.218              0.623
 Vibration    23          0.911              1.128              0.533
 Vibration    24          0.962              1.025              0.444

 Optimization completed.
    -- Stationary point found.
 Normal termination of Gaussian 16 at Thu Dec 10 16:55:17 2020.

 ----------------------------------------------------------------------
 # B3LYP/6-311++G(d,p) empiricaldispersion=gd3bj scf=xqc pop=npa geom=c
 heck
 ----------------------------------------------------------------------

 ---------------------------------------
 CID_137464729_JID_5717_Energie_neutraal
 ---------------------------------------
 Structure from the checkpoint file:  "JID_5717.chk"
 Charge =  0 Multiplicity = 1

 SCF Done:  E(RB3LYP) =  -727.366676733     A.U. after   15 cycles
 Normal termination of Gaussian 16 at Thu Dec 10 17:01:10 2020.

 ----------------------------------------------------------------------
 # B3LYP/6-311++G(d,p) empiricaldispersion=gd3bj scf=xqc pop=npa geom=c
 heck
 ----------------------------------------------------------------------

 -------------------------------------
 CID_137464729_JID_5717_Energie_kation
 -------------------------------------
 Structure from the checkpoint file:  "JID_5717.chk"
 Charge =  1 Multiplicity = 2

 SCF Done:  E(UB3LYP) =  -727.049683113     A.U. after   30 cycles
 Normal termination of Gaussian 16 at Thu Dec 10 17:16:51 2020.
 Gaussian 16:  ES64L-G16RevA.03 25-Dec-2016

 ----------------------------------------------------------------------
 # B3LYP/6-311++G(d,p) empiricaldispersion=gd3bj scf=xqc pop=npa geom=c
 heck
 ----------------------------------------------------------------------

 ------------------------------------
 CID_137464729_JID_5717_Energie_anion
 ------------------------------------
 Structure from the checkpoint file:  "JID_5717.chk"
 Charge = -1 Multiplicity = 2

                         Standard orientation:
 ---------------------------------------------------------------------
 Center     Atomic      Atomic             Coordinates (Angstroms)
 Number     Number       Type             X           Y           Z
 ---------------------------------------------------------------------
      1          6           0        4.757345    2.221152    0.284490
      2          6           0        3.769861    1.134639   -0.016401
      3          6           0        3.931958   -0.153142    0.307650
      4          6           0        3.042611   -1.276436   -0.106412
      5          8           0        3.533059   -2.338518   -0.479330
      6          7           0        1.678418   -1.090062   -0.109585
      7          6           0        0.888049   -0.144942    0.673816
      8          6           0        0.026117    0.786938   -0.186503
      9          6           0       -0.912123    0.059673   -1.160762
     10          6           0       -1.869259   -0.952947   -0.516155
     11          6           0       -2.811683   -0.399198    0.572611
     12          6           0       -3.702995    0.681875   -0.032796
     13          8           0       -4.749714    0.468476   -0.604982
     14          8           0       -3.192095    1.929741    0.114199
     15          7           0       -3.582648   -1.504705    1.135496
     16          1           0        5.621224    1.838584    0.836784
     17          1           0        4.294094    3.020459    0.878079
     18          1           0        5.120144    2.688048   -0.640721
     19          1           0        2.878159    1.435713   -0.564411
     20          1           0        4.846384   -0.484924    0.794430
     21          1           0        1.201569   -1.930143   -0.416492
     22          1           0        0.249751   -0.711974    1.364697
     23          1           0        1.571985    0.441753    1.289362
     24          1           0       -0.553666    1.437835    0.478900
     25          1           0        0.683078    1.444756   -0.769018
     26          1           0       -1.485679    0.809732   -1.717982
     27          1           0       -0.305933   -0.472129   -1.904221
     28          1           0       -2.491733   -1.406579   -1.298420
     29          1           0       -1.317851   -1.775836   -0.047455
     30          1           0       -2.218817    0.051869    1.374014
     31          1           0       -3.812730    2.535386   -0.335305
     32          1           0       -4.150273   -1.165239    1.911196
     33          1           0       -4.249374   -1.817197    0.428869
 ---------------------------------------------------------------------

 SCF Done:  E(UB3LYP) =  -727.361766804     A.U. after   33 cycles
 SCF Done:  E(UB3LYP) =  -727.361766804     a.u. after    1 cycles

 The electronic state is 2-A.
 Alpha  occ. eigenvalues --  -19.07657 -19.02699 -18.97674 -14.23030 -14.21408
 Alpha  occ. eigenvalues --  -10.21273 -10.16233 -10.12630 -10.10996 -10.08778
 Alpha  occ. eigenvalues --  -10.08067 -10.07845 -10.07737 -10.07270 -10.06908
 Alpha  occ. eigenvalues --   -1.01787  -0.93069  -0.92876  -0.81826  -0.81240
 Alpha  occ. eigenvalues --   -0.71193  -0.70185  -0.65493  -0.61387  -0.60531
 Alpha  occ. eigenvalues --   -0.56318  -0.51334  -0.50086  -0.47436  -0.46027
 Alpha  occ. eigenvalues --   -0.43639  -0.40852  -0.39916  -0.39169  -0.38644
 Alpha  occ. eigenvalues --   -0.37839  -0.36304  -0.34769  -0.33854  -0.33356
 Alpha  occ. eigenvalues --   -0.32884  -0.32140  -0.31588  -0.31018  -0.29303
 Alpha  occ. eigenvalues --   -0.28949  -0.28371  -0.28051  -0.25991  -0.24813
 Alpha  occ. eigenvalues --   -0.24258  -0.23738  -0.23299  -0.19935  -0.17138
 Alpha  occ. eigenvalues --   -0.17023  -0.15728  -0.14610   0.03956
 Alpha virt. eigenvalues --    0.05723   0.06462   0.06797   0.07794   0.07918
 Alpha virt. eigenvalues --    0.08831   0.09045   0.09575   0.10385   0.10711
 Alpha virt. eigenvalues --    0.11062   0.11598   0.12045   0.13041   0.13553

  Beta  occ. eigenvalues --  -19.07590 -19.02684 -18.97586 -14.23028 -14.21389
  Beta  occ. eigenvalues --  -10.21273 -10.16156 -10.12606 -10.10987 -10.08773
  Beta  occ. eigenvalues --  -10.08067 -10.07724 -10.07661 -10.07258 -10.06887
  Beta  occ. eigenvalues --   -1.01708  -0.93000  -0.92719  -0.81775  -0.81206
  Beta  occ. eigenvalues --   -0.71151  -0.69944  -0.65447  -0.61270  -0.60469
  Beta  occ. eigenvalues --   -0.56258  -0.51222  -0.49882  -0.47337  -0.45913
  Beta  occ. eigenvalues --   -0.43601  -0.40814  -0.39880  -0.39102  -0.38573
  Beta  occ. eigenvalues --   -0.37800  -0.36259  -0.34679  -0.33732  -0.33300
  Beta  occ. eigenvalues --   -0.32693  -0.32067  -0.31529  -0.30929  -0.29243
  Beta  occ. eigenvalues --   -0.28834  -0.28290  -0.27908  -0.25896  -0.24720
  Beta  occ. eigenvalues --   -0.24226  -0.23709  -0.23260  -0.19898  -0.17002
  Beta  occ. eigenvalues --   -0.16652  -0.15549  -0.14321
  Beta virt. eigenvalues --    0.06328   0.06696   0.07319   0.07788   0.07848
  Beta virt. eigenvalues --    0.08161   0.08993   0.09198   0.09772   0.10471
  Beta virt. eigenvalues --    0.10899   0.11170   0.11872   0.12200   0.13066

 Mulliken charges and spin densities:
               1          2
     1  C    0.078880  -0.762470
     2  C   -0.044623   0.399121
     3  C   -0.135554   0.144031
     4  C   -0.151322  -0.043245
     5  O   -0.368371   0.029668
     6  N   -0.098157   0.011398
     7  C   -0.186495  -0.459353
     8  C    0.143076  -0.301412
     9  C   -0.652707   0.331645
    10  C    0.012060  -0.048811
    11  C    0.622085  -1.171943
    12  C    0.283324  -0.502933
    13  O   -0.308685   0.048273
    14  O   -0.201130   0.074159
    15  N   -0.318475   0.077240
    16  H    0.058321   0.079917
    17  H   -0.116292   0.270245
    18  H    0.065871   0.069588
    19  H    0.083458   0.021686
    20  H    0.156285   0.023892
    21  H    0.302359  -0.003845
    22  H    0.041547   0.156189
    23  H   -0.017639   0.182230
    24  H    0.001442   0.181395
    25  H   -0.096806   0.235335
    26  H   -0.147273   0.339293
    27  H    0.089834   0.111654
    28  H    0.102730   0.070874
    29  H    0.192111   0.014047
    30  H   -0.026360   0.281042
    31  H   -0.557570   0.863086
    32  H    0.009925   0.221703
    33  H    0.184151   0.056303
 Sum of Mulliken charges =  -1.00000   1.00000

 Dipole moment (field-independent basis, Debye):
    X=              1.5468    Y=             -2.5057    Z=              0.2087  Tot=              2.9521
 Quadrupole moment (field-independent basis, Debye-Ang):
   XX=           -183.8960   YY=           -142.1256   ZZ=           -116.3547
   XY=             23.9549   XZ=              0.6562   YZ=             -0.0901

 Summary of Natural Population Analysis:

                                       Natural Population
                Natural  -----------------------------------------------
    Atom  No    Charge         Core      Valence    Rydberg      Total
 -----------------------------------------------------------------------
      C    1   -0.30138      0.99965     2.29695    0.00478     3.30138
      C    2   -0.03947      0.99954     2.03080    0.00913     3.03947
      C    3   -0.14698      0.99947     2.13794    0.00957     3.14698
      C    4    0.33809      0.99965     1.64040    0.02187     2.66191
      O    5   -0.31955      0.99988     3.31397    0.00570     4.31955
      N    6   -0.32454      0.99967     2.81586    0.00901     3.82454
      C    7   -0.09323      0.99961     2.08316    0.01046     3.09323
      C    8   -0.19652      0.99962     2.18816    0.00875     3.19652
      C    9   -0.19554      0.99962     2.18701    0.00891     3.19554
      C   10   -0.18902      0.99961     2.18130    0.00811     3.18902
      C   11   -0.06011      0.99955     2.04689    0.01366     3.06011
      C   12    0.40138      0.99969     1.57211    0.02682     2.59862
      O   13   -0.31223      0.99987     3.30564    0.00672     4.31223
      O   14   -0.34220      0.99988     3.33464    0.00768     4.34220
      N   15   -0.41463      0.99978     2.90506    0.00980     3.91463
      H   16    0.09777      0.00000     0.40125    0.00098     0.40223
      H   17    0.10572      0.00000     0.39238    0.00190     0.39428
      H   18    0.10181      0.00000     0.39705    0.00115     0.39819
      H   19    0.09067      0.00000     0.40773    0.00161     0.40933
      H   20    0.09943      0.00000     0.39947    0.00110     0.40057
      H   21    0.18908      0.00000     0.30811    0.00282     0.31092
      H   22    0.09074      0.00000     0.40806    0.00121     0.40926
      H   23    0.10790      0.00000     0.39087    0.00123     0.39210
      H   24    0.10432      0.00000     0.39386    0.00182     0.39568
      H   25    0.09821      0.00000     0.40029    0.00150     0.40179
      H   26    0.10328      0.00000     0.39546    0.00126     0.39672
      H   27    0.09991      0.00000     0.39892    0.00117     0.40009
      H   28    0.10049      0.00000     0.39852    0.00098     0.39951
      H   29    0.10086      0.00000     0.39767    0.00147     0.39914
      H   30    0.10491      0.00000     0.39289    0.00220     0.39509
      H   31    0.24614      0.00000     0.22585    0.02801     0.25386
      H   32    0.17699      0.00000     0.32150    0.00151     0.32301
      H   33    0.17770      0.00000     0.32043    0.00187     0.32230
 =======================================================================
   * Total *    0.00000     14.99508    42.79016    0.21476    58.00000

 Normal termination of Gaussian 16 at Thu Dec 10 17:34:25 2020.
