 Gaussian 16, Revision A.03,

 -----------------------------------------------------------
 # opt freq B3LYP/6-31G(d) empiricaldispersion=gd3bj scf=xqc
 -----------------------------------------------------------

 -------------------------------
 CID_102026275_JID_6250_neutraal
 -------------------------------
 Symbolic Z-matrix:
 Charge =  0 Multiplicity = 1

 SCF Done:  E(RB3LYP) =  -993.120681621     A.U. after   15 cycles
 SCF Done:  E(RB3LYP) =  -993.125082898     A.U. after   12 cycles
 SCF Done:  E(RB3LYP) =  -993.125624406     A.U. after   11 cycles
 SCF Done:  E(RB3LYP) =  -993.125752126     A.U. after   11 cycles
 SCF Done:  E(RB3LYP) =  -993.125785554     A.U. after   10 cycles
 SCF Done:  E(RB3LYP) =  -993.125807608     A.U. after    9 cycles
 SCF Done:  E(RB3LYP) =  -993.125817763     A.U. after   10 cycles
 SCF Done:  E(RB3LYP) =  -993.125819126     A.U. after    8 cycles
 SCF Done:  E(RB3LYP) =  -993.125819985     A.U. after    8 cycles
 SCF Done:  E(RB3LYP) =  -993.125820094     A.U. after    7 cycles
 Optimization completed.
    -- Stationary point found.
 Normal termination of Gaussian 16 at Thu Dec 10 21:45:29 2020.

 --------------------------------------------------------------------
 #N Geom=AllCheck Guess=TCheck SCRF=Check GenChk RB3LYP/6-31G(d) Freq
 --------------------------------------------------------------------

 Structure from the checkpoint file:  "JID_6250.chk"
 -------------------------------
 CID_102026275_JID_6250_neutraal
 -------------------------------
 Charge =  0 Multiplicity = 1

 SCF Done:  E(RB3LYP) =  -993.125820094     A.U. after    1 cycles

  Exact polarizability: 292.446   7.083 172.038  -0.667  -1.027  68.010
 Approx polarizability: 452.618  19.959 317.506  -1.635  -0.809 110.635

                      1                      2                      3
                      A                      A                      A
 Frequencies --     62.8286                80.0090               148.1828
 Red. masses --      5.2897                 4.4305                 4.9654
 Frc consts  --      0.0123                 0.0167                 0.0642
 IR Inten    --      0.4975                 0.3255                 0.2097

                      4                      5                      6
                      A                      A                      A
 Frequencies --    164.2986               191.0402               248.6088
 Red. masses --      3.9427                 3.6737                 3.5960
 Frc consts  --      0.0627                 0.0790                 0.1310
 IR Inten    --      2.0920                 0.5217                 0.6663

                      7                      8                      9
                      A                      A                      A
 Frequencies --    278.1924               285.2658               343.8667
 Red. masses --      3.8606                 4.2641                 4.3946
 Frc consts  --      0.1760                 0.2044                 0.3062
 IR Inten    --      1.4208                 0.3778                 0.6605

                     10                     11                     12
                      A                      A                      A
 Frequencies --    382.3757               441.4878               458.2987
 Red. masses --      6.6340                 3.3032                 4.0719
 Frc consts  --      0.5715                 0.3793                 0.5039
 IR Inten    --      0.7177                 2.1432                 0.8435

                     13                     14                     15
                      A                      A                      A
 Frequencies --    494.1455               529.8654               571.2538
 Red. masses --      4.9161                 4.7058                 4.0603
 Frc consts  --      0.7073                 0.7784                 0.7807
 IR Inten    --      3.2160                 6.1685                 1.0908

                     16                     17                     18
                      A                      A                      A
 Frequencies --    579.1296               596.0728               604.2938
 Red. masses --      4.0180                 4.8414                 4.6057
 Frc consts  --      0.7940                 1.0135                 0.9909
 IR Inten    --      0.2511                 4.7024                 3.5918

                     19                     20                     21
                      A                      A                      A
 Frequencies --    644.2686               670.2932               680.9117
 Red. masses --      3.7024                 2.1434                 6.5903
 Frc consts  --      0.9055                 0.5674                 1.8003
 IR Inten    --      5.3244                26.3858                 0.3357

                     22                     23                     24
                      A                      A                      A
 Frequencies --    715.8280               744.5453               750.7172
 Red. masses --      1.7668                 1.3497                 3.0845
 Frc consts  --      0.5334                 0.4408                 1.0242
 IR Inten    --     11.0779                13.6340                 1.0545

                     25                     26                     27
                      A                      A                      A
 Frequencies --    762.4168               794.1007               805.9457
 Red. masses --      2.5789                 1.7851                 4.5024
 Frc consts  --      0.8832                 0.6632                 1.7231
 IR Inten    --     32.5168                32.3035                 4.9165

                     28                     29                     30
                      A                      A                      A
 Frequencies --    834.6996               855.7995               882.1774
 Red. masses --      4.5606                 1.5476                 1.3060
 Frc consts  --      1.8721                 0.6678                 0.5988
 IR Inten    --     11.8275                 1.3398                 2.0790

                     31                     32                     33
                      A                      A                      A
 Frequencies --    901.2709               907.0877               917.9235
 Red. masses --      2.3832                 5.1340                 1.3416
 Frc consts  --      1.1406                 2.4889                 0.6660
 IR Inten    --     13.9023                 1.9760                 1.5970

                     34                     35                     36
                      A                      A                      A
 Frequencies --    964.1414               975.4687              1016.8796
 Red. masses --      1.2315                 2.6987                 2.7754
 Frc consts  --      0.6745                 1.5130                 1.6909
 IR Inten    --      0.0854                 1.4775                 0.1802

                     37                     38                     39
                      A                      A                      A
 Frequencies --   1046.0663              1060.5304              1080.9551
 Red. masses --      2.1633                 2.8322                 2.0150
 Frc consts  --      1.3947                 1.8768                 1.3872
 IR Inten    --      3.4838                 5.9342                 3.6387

                     40                     41                     42
                      A                      A                      A
 Frequencies --   1123.8144              1145.9931              1179.9969
 Red. masses --      1.2086                 1.7544                 1.4635
 Frc consts  --      0.8993                 1.3575                 1.2006
 IR Inten    --      6.5290                 1.2032                 2.4169

                     43                     44                     45
                      A                      A                      A
 Frequencies --   1190.5990              1208.4213              1231.4938
 Red. masses --      1.5622                 1.4220                 1.5341
 Frc consts  --      1.3047                 1.2235                 1.3708
 IR Inten    --     12.2398                 1.1425                12.4577

                     46                     47                     48
                      A                      A                      A
 Frequencies --   1254.1206              1275.7762              1287.7882
 Red. masses --      1.4655                 2.9300                 1.5179
 Frc consts  --      1.3580                 2.8097                 1.4831
 IR Inten    --      8.1064                10.0288                11.7410

                     49                     50                     51
                      A                      A                      A
 Frequencies --   1351.1896              1365.2174              1376.7014
 Red. masses --      2.4887                 1.8051                 1.6402
 Frc consts  --      2.6770                 1.9822                 1.8316
 IR Inten    --     25.1519                 2.1329                30.5191

                     52                     53                     54
                      A                      A                      A
 Frequencies --   1399.4753              1417.4373              1435.6676
 Red. masses --      3.6548                 3.0142                 2.4890
 Frc consts  --      4.2174                 3.5681                 3.0226
 IR Inten    --     76.9020                 4.1763                 5.4734

                     55                     56                     57
                      A                      A                      A
 Frequencies --   1446.1291              1480.0768              1499.6130
 Red. masses --      3.8708                 5.0932                 2.1405
 Frc consts  --      4.7694                 6.5737                 2.8361
 IR Inten    --      0.8418                24.9251                13.3328

                     58                     59                     60
                      A                      A                      A
 Frequencies --   1506.7760              1532.8557              1534.4605
 Red. masses --      1.2913                 2.9955                 1.1649
 Frc consts  --      1.7273                 4.1469                 1.6161
 IR Inten    --      2.7991                 2.1084                 1.3842

                     61                     62                     63
                      A                      A                      A
 Frequencies --   1571.3283              1627.0935              1634.8293
 Red. masses --      4.9372                 6.2287                 7.6933
 Frc consts  --      7.1823                 9.7157                12.1146
 IR Inten    --      2.8793                 3.0664                 1.9062

                     64                     65                     66
                      A                      A                      A
 Frequencies --   1671.2642              3022.7767              3034.9999
 Red. masses --      6.7316                 1.0725                 1.0657
 Frc consts  --     11.0779                 5.7737                 5.7837
 IR Inten    --      1.5816                34.9917                34.2813

                     67                     68                     69
                      A                      A                      A
 Frequencies --   3092.8104              3118.3418              3182.3859
 Red. masses --      1.0955                 1.0943                 1.0849
 Frc consts  --      6.1740                 6.2694                 6.4736
 IR Inten    --     31.2899                18.6663                 0.5662

                     70                     71                     72
                      A                      A                      A
 Frequencies --   3190.8999              3200.7790              3210.8301
 Red. masses --      1.0882                 1.0933                 1.0969
 Frc consts  --      6.5279                 6.5996                 6.6629
 IR Inten    --      4.2925                38.9073                37.8674

                     73                     74                     75
                      A                      A                      A
 Frequencies --   3217.0241              3259.6140              3274.0723
 Red. masses --      1.0913                 1.0956                 1.0963
 Frc consts  --      6.6540                 6.8585                 6.9242
 IR Inten    --     13.3156                 3.8146                 0.3873

 - Thermochemistry -
 -------------------
 Temperature   298.150 Kelvin.  Pressure   1.00000 Atm.
 Atom     1 has atomic number  6 and mass  12.00000

 Molecular mass:   225.06122 amu.
 Principal axes and moments of inertia in atomic units:
                           1         2         3
     Eigenvalues --  1367.518295905.789547209.41174
           X            0.99994   0.01050   0.00103
           Y           -0.01050   0.99994  -0.00356
           Z           -0.00106   0.00355   0.99999
 This molecule is an asymmetric top.
 Rotational symmetry number  1.
 Warning -- assumption of classical behavior for rotation
           may cause significant error
 Rotational temperatures (Kelvin)      0.06334     0.01467     0.01201
 Rotational constants (GHZ):           1.31972     0.30559     0.25033
 Zero-point vibrational energy     562387.8 (Joules/Mol)
                                  134.41391 (Kcal/Mol)
 Warning -- explicit consideration of  18 degrees of freedom as
           vibrations may cause significant error
 Vibrational temperatures:     90.40   115.12   213.20   236.39   274.86
          (Kelvin)            357.69   400.26   410.43   494.75   550.15
                              635.20   659.39   710.97   762.36   821.91
                              833.24   857.62   869.44   926.96   964.40
                              979.68  1029.92  1071.23  1080.11  1096.95
                             1142.53  1159.58  1200.95  1231.30  1269.26
                             1296.73  1305.10  1320.69  1387.18  1403.48
                             1463.06  1505.06  1525.87  1555.25  1616.92
                             1648.83  1697.75  1713.01  1738.65  1771.84
                             1804.40  1835.56  1852.84  1944.06  1964.24
                             1980.77  2013.53  2039.38  2065.61  2080.66
                             2129.50  2157.61  2167.91  2205.44  2207.75
                             2260.79  2341.02  2352.15  2404.58  4349.10
                             4366.69  4449.86  4486.60  4578.74  4590.99
                             4605.21  4619.67  4628.58  4689.86  4710.66

 Zero-point correction=                           0.214202 (Hartree/Particle)
 Thermal correction to Energy=                    0.225868
 Thermal correction to Enthalpy=                  0.226812
 Thermal correction to Gibbs Free Energy=         0.176216
 Sum of electronic and zero-point Energies=           -992.911618
 Sum of electronic and thermal Energies=              -992.899952
 Sum of electronic and thermal Enthalpies=            -992.899008
 Sum of electronic and thermal Free Energies=         -992.949604

                     E (Thermal)             CV                S
                      KCal/Mol        Cal/Mol-Kelvin    Cal/Mol-Kelvin
 Total                  141.734             48.586            106.489
 Electronic               0.000              0.000              0.000
 Translational            0.889              2.981             42.136
 Rotational               0.889              2.981             32.432
 Vibrational            139.957             42.625             31.921
 Vibration     1          0.597              1.972              4.366
 Vibration     2          0.600              1.963              3.891
 Vibration     3          0.618              1.905              2.695
 Vibration     4          0.623              1.886              2.500
 Vibration     5          0.634              1.852              2.218
 Vibration     6          0.662              1.765              1.740
 Vibration     7          0.679              1.714              1.545
 Vibration     8          0.683              1.701              1.502
 Vibration     9          0.723              1.588              1.194
 Vibration    10          0.752              1.508              1.030
 Vibration    11          0.801              1.380              0.822
 Vibration    12          0.816              1.343              0.771
 Vibration    13          0.850              1.263              0.673
 Vibration    14          0.885              1.184              0.588
 Vibration    15          0.927              1.093              0.502
 Vibration    16          0.936              1.076              0.487
 Vibration    17          0.954              1.040              0.456
 Vibration    18          0.963              1.023              0.442

 Optimization completed.
    -- Stationary point found.
 Normal termination of Gaussian 16 at Thu Dec 10 21:54:21 2020.

 ----------------------------------------------------------------------
 # B3LYP/6-311++G(d,p) empiricaldispersion=gd3bj scf=xqc pop=npa geom=c
 heck
 ----------------------------------------------------------------------

 ---------------------------------------
 CID_102026275_JID_6250_Energie_neutraal
 ---------------------------------------
 Structure from the checkpoint file:  "JID_6250.chk"
 Charge =  0 Multiplicity = 1

 SCF Done:  E(RB3LYP) =  -993.296816470     A.U. after   16 cycles
 Normal termination of Gaussian 16 at Thu Dec 10 21:58:23 2020.

 ----------------------------------------------------------------------
 # B3LYP/6-311++G(d,p) empiricaldispersion=gd3bj scf=xqc pop=npa geom=c
 heck
 ----------------------------------------------------------------------

 -------------------------------------
 CID_102026275_JID_6250_Energie_kation
 -------------------------------------
 Structure from the checkpoint file:  "JID_6250.chk"
 Charge =  1 Multiplicity = 2

 SCF Done:  E(UB3LYP) =  -993.041711205     A.U. after   25 cycles
 Normal termination of Gaussian 16 at Thu Dec 10 22:07:24 2020.
 Gaussian 16:  ES64L-G16RevA.03 25-Dec-2016

 ----------------------------------------------------------------------
 # B3LYP/6-311++G(d,p) empiricaldispersion=gd3bj scf=xqc pop=npa geom=c
 heck
 ----------------------------------------------------------------------

 ------------------------------------
 CID_102026275_JID_6250_Energie_anion
 ------------------------------------
 Structure from the checkpoint file:  "JID_6250.chk"
 Charge = -1 Multiplicity = 2

                         Standard orientation:
 ---------------------------------------------------------------------
 Center     Atomic      Atomic             Coordinates (Angstroms)
 Number     Number       Type             X           Y           Z
 ---------------------------------------------------------------------
      1          6           0        1.433905    2.158546    0.343747
      2          6           0        0.067259    2.017524   -0.343883
      3          7           0       -0.535253    0.732983   -0.018101
      4          6           0       -1.879414    0.413146   -0.026101
      5          6           0       -3.004463    1.237739   -0.108860
      6          6           0       -4.254387    0.627863   -0.070778
      7          6           0       -4.382868   -0.770525    0.046130
      8          6           0       -3.263673   -1.589424    0.122181
      9          6           0       -1.986276   -1.006576    0.078496
     10          6           0       -0.651594   -1.525090    0.115894
     11          6           0        0.207443   -0.449958    0.038825
     12          6           0        1.639611   -0.306915    0.018719
     13          6           0        2.265213    0.918099    0.139578
     14          6           0        3.686219    0.808639    0.100711
     15          6           0        4.117249   -0.481718   -0.049496
     16         16           0        2.790902   -1.603631   -0.153288
     17          1           0        1.943172    3.044519   -0.051217
     18          1           0        1.279582    2.330049    1.418476
     19          1           0        0.185623    2.104582   -1.433575
     20          1           0       -0.608471    2.810754   -0.014404
     21          1           0       -2.913029    2.315754   -0.201891
     22          1           0       -5.147718    1.242586   -0.133147
     23          1           0       -5.374963   -1.211883    0.074885
     24          1           0       -3.370516   -2.667312    0.208254
     25          1           0       -0.358620   -2.561361    0.213734
     26          1           0        4.358448    1.656369    0.181481
     27          1           0        5.133490   -0.844936   -0.114255
 ---------------------------------------------------------------------

 SCF Done:  E(UB3LYP) =  -993.297802121     A.U. after   29 cycles

 The electronic state is 2-A.
 Alpha  occ. eigenvalues --  -88.72323 -14.21332 -10.09458 -10.06797 -10.06144
 Alpha  occ. eigenvalues --  -10.06018 -10.04435 -10.04366 -10.03582 -10.03545
 Alpha  occ. eigenvalues --  -10.03420 -10.03369 -10.03189 -10.02857 -10.02849
 Alpha  occ. eigenvalues --  -10.00997  -7.80976  -5.77282  -5.76924  -5.76571
 Alpha  occ. eigenvalues --   -0.85222  -0.73973  -0.71262  -0.67864  -0.64146
 Alpha  occ. eigenvalues --   -0.61234  -0.60273  -0.58007  -0.55493  -0.51513
 Alpha  occ. eigenvalues --   -0.48138  -0.45659  -0.44216  -0.41591  -0.39114
 Alpha  occ. eigenvalues --   -0.38666  -0.36496  -0.34937  -0.33479  -0.31327
 Alpha  occ. eigenvalues --   -0.30932  -0.30123  -0.28814  -0.27967  -0.27100
 Alpha  occ. eigenvalues --   -0.26391  -0.25408  -0.23788  -0.23263  -0.22703
 Alpha  occ. eigenvalues --   -0.22280  -0.20453  -0.19907  -0.19641  -0.14862
 Alpha  occ. eigenvalues --   -0.12524  -0.11313  -0.08334  -0.05933   0.05126
 Alpha virt. eigenvalues --    0.08103   0.08708   0.09114   0.10028   0.10617
 Alpha virt. eigenvalues --    0.10716   0.11654   0.12255   0.12366   0.12598
 Alpha virt. eigenvalues --    0.13814   0.14165   0.15010   0.15338   0.15513

  Beta  occ. eigenvalues --  -88.72264 -14.21236 -10.09452 -10.06829 -10.06160
  Beta  occ. eigenvalues --  -10.05869 -10.04265 -10.03993 -10.03663 -10.03461
  Beta  occ. eigenvalues --  -10.03447 -10.03401 -10.03069 -10.02671 -10.02626
  Beta  occ. eigenvalues --  -10.00865  -7.80923  -5.77257  -5.76900  -5.76372
  Beta  occ. eigenvalues --   -0.85048  -0.73642  -0.71091  -0.67685  -0.63824
  Beta  occ. eigenvalues --   -0.60909  -0.59956  -0.57841  -0.55156  -0.51367
  Beta  occ. eigenvalues --   -0.47723  -0.45545  -0.43939  -0.41320  -0.38968
  Beta  occ. eigenvalues --   -0.38420  -0.36316  -0.34844  -0.33278  -0.31200
  Beta  occ. eigenvalues --   -0.30788  -0.29942  -0.28672  -0.27801  -0.26971
  Beta  occ. eigenvalues --   -0.25941  -0.25175  -0.23635  -0.22562  -0.22499
  Beta  occ. eigenvalues --   -0.22165  -0.20374  -0.19552  -0.19026  -0.14113
  Beta  occ. eigenvalues --   -0.11395  -0.10310  -0.07585  -0.04608
  Beta virt. eigenvalues --    0.08045   0.08661   0.09082   0.09914   0.09980
  Beta virt. eigenvalues --    0.10585   0.10923   0.11617   0.12237   0.12545
  Beta virt. eigenvalues --    0.13410   0.13816   0.14394   0.15014   0.15534

 Mulliken charges and spin densities:
               1          2
     1  C   -0.990476  -0.045726
     2  C   -0.239934  -0.021258
     3  N    0.380304   0.036409
     4  C   -0.561733  -0.054113
     5  C   -0.465771   0.103644
     6  C   -0.494792   0.087962
     7  C   -0.241359  -0.022935
     8  C   -0.349943   0.159811
     9  C    0.973811  -0.047038
    10  C    0.132491   0.109370
    11  C   -0.444978   0.059584
    12  C    0.207153   0.133770
    13  C    0.501334   0.169603
    14  C    0.418563  -0.060440
    15  C   -0.244147   0.247045
    16  S   -0.841239   0.097202
    17  H    0.123065   0.002993
    18  H    0.111111   0.042644
    19  H    0.152692  -0.003164
    20  H    0.079442   0.036939
    21  H    0.080278   0.004997
    22  H    0.112078  -0.005724
    23  H    0.096508   0.002790
    24  H    0.102689  -0.009945
    25  H    0.121181  -0.008110
    26  H    0.097819   0.003303
    27  H    0.183854  -0.019614
 Sum of Mulliken charges =  -1.00000   1.00000

 Dipole moment (field-independent basis, Debye):
    X=              0.6113    Y=              2.7281    Z=             -0.2744  Tot=              2.8092
 Quadrupole moment (field-independent basis, Debye-Ang):
   XX=           -152.6072   YY=           -109.5273   ZZ=           -114.8618
   XY=              2.7029   XZ=              0.2594   YZ=             -1.2435

 Summary of Natural Population Analysis:

                                       Natural Population
                Natural  -----------------------------------------------
    Atom  No    Charge         Core      Valence    Rydberg      Total
 -----------------------------------------------------------------------
      C    1   -0.19247      0.99960     2.18622    0.00665     3.19247
      C    2   -0.07206      0.99964     2.06214    0.01029     3.07206
      N    3   -0.20520      0.99959     2.69575    0.00986     3.70520
      C    4    0.08376      0.99949     1.90712    0.00963     2.91624
      C    5   -0.11459      0.99953     2.10686    0.00819     3.11459
      C    6   -0.09859      0.99960     2.08830    0.01070     3.09859
      C    7   -0.13453      0.99958     2.12505    0.00989     3.13453
      C    8   -0.07030      0.99953     2.06186    0.00891     3.07030
      C    9   -0.04718      0.99951     2.03920    0.00847     3.04718
      C   10   -0.12297      0.99949     2.11533    0.00815     3.12297
      C   11    0.10852      0.99951     1.88005    0.01192     2.89148
      C   12   -0.08684      0.99928     2.07576    0.01180     3.08684
      C   13   -0.00538      0.99945     1.99616    0.00977     3.00538
      C   14   -0.16156      0.99953     2.15013    0.01191     3.16156
      C   15   -0.11893      0.99945     2.10586    0.01362     3.11893
      S   16    0.20923      4.99944     2.77001    0.02132     7.79077
      H   17    0.09682      0.00000     0.40197    0.00121     0.40318
      H   18    0.09954      0.00000     0.39859    0.00187     0.40046
      H   19    0.08765      0.00000     0.41121    0.00114     0.41235
      H   20    0.09426      0.00000     0.40400    0.00174     0.40574
      H   21    0.09335      0.00000     0.40553    0.00113     0.40665
      H   22    0.08941      0.00000     0.40993    0.00066     0.41059
      H   23    0.08977      0.00000     0.40918    0.00105     0.41023
      H   24    0.08968      0.00000     0.40878    0.00154     0.41032
      H   25    0.09968      0.00000     0.39937    0.00095     0.40032
      H   26    0.09536      0.00000     0.40335    0.00129     0.40464
      H   27    0.09368      0.00000     0.40493    0.00138     0.40632
 =======================================================================
   * Total *    0.00009     19.99224    38.82263    0.18504    58.99991

 Normal termination of Gaussian 16 at Thu Dec 10 22:16:00 2020.
