 Gaussian 16, Revision A.03,

 -----------------------------------------------------------
 # opt freq B3LYP/6-31G(d) empiricaldispersion=gd3bj scf=xqc
 -----------------------------------------------------------

 -------------------------------
 CID_151434821_JID_4406_neutraal
 -------------------------------
 Symbolic Z-matrix:
 Charge =  0 Multiplicity = 1

 SCF Done:  E(RB3LYP) =  -660.073619032     A.U. after   16 cycles
 SCF Done:  E(RB3LYP) =  -660.088937597     A.U. after   15 cycles
 SCF Done:  E(RB3LYP) =  -660.093945341     A.U. after   15 cycles
 SCF Done:  E(RB3LYP) =  -660.096896462     A.U. after   14 cycles
 SCF Done:  E(RB3LYP) =  -660.097879159     A.U. after   13 cycles
 SCF Done:  E(RB3LYP) =  -660.099499480     A.U. after   14 cycles
 SCF Done:  E(RB3LYP) =  -660.100764186     A.U. after   13 cycles
 SCF Done:  E(RB3LYP) =  -660.102705760     A.U. after   14 cycles
 SCF Done:  E(RB3LYP) =  -660.104124402     A.U. after   16 cycles
 SCF Done:  E(RB3LYP) =  -660.104538302     A.U. after   13 cycles
 SCF Done:  E(RB3LYP) =  -660.104961040     A.U. after    7 cycles
 SCF Done:  E(RB3LYP) =  -660.104960913     A.U. after    7 cycles
 SCF Done:  E(RB3LYP) =  -660.104960790     A.U. after    7 cycles
 SCF Done:  E(RB3LYP) =  -660.104960526     A.U. after    8 cycles
 SCF Done:  E(RB3LYP) =  -660.104961068     A.U. after    8 cycles
 SCF Done:  E(RB3LYP) =  -660.104960570     A.U. after    8 cycles
 Optimization completed.
    -- Stationary point found.

 1\1\GINC-NODE371\FOpt\RB3LYP\6-31G(d)\C7H17N7\VSC10255\10-Dec-2020\0\\
 # opt freq B3LYP/6-31G(d) empiricaldispersion=gd3bj scf=xqc\\CID_15143
 4821_JID_4406_neutraal\\0,1\C,1.1183400465,0.0577069684,-0.2816942089\
 N,0.2305090861,1.2088851571,-0.4033740339\C,-1.1406815708,0.8349535161
 ,-0.0978346442\C,0.7049182315,2.507852327,0.0395898747\C,2.0773264808,
 2.8632664239,-0.5727258259\C,2.1799075877,4.3904604758,-0.4477104175\C
 ,0.7234249847,4.9107771692,-0.5648998096\C,-0.1789664661,3.655637072,-
 0.5091082773\N,0.8387360738,2.7525163409,1.5262199549\N,-0.3539780767,

 Normal termination of Gaussian 16 at Thu Dec 10 09:52:13 2020.

 --------------------------------------------------------------------
 #N Geom=AllCheck Guess=TCheck SCRF=Check GenChk RB3LYP/6-31G(d) Freq
 --------------------------------------------------------------------

 Structure from the checkpoint file:  "JID_4406.chk"
 -------------------------------
 CID_151434821_JID_4406_neutraal
 -------------------------------
 Charge =  0 Multiplicity = 1

 SCF Done:  E(RB3LYP) =  -660.104960570     A.U. after    1 cycles

  Exact polarizability: 142.115   3.984 115.604   5.410  -1.904 106.167
 Approx polarizability: 235.877  16.895 155.817   9.018  -5.754 153.676

                      1                      2                      3
                      A                      A                      A
 Frequencies --     24.8752                37.4977                95.0260
 Red. masses --      5.5793                 4.7576                 3.0486
 Frc consts  --      0.0020                 0.0039                 0.0162
 IR Inten    --      0.0730                 0.8833                 0.5033

                      4                      5                      6
                      A                      A                      A
 Frequencies --     98.7415               124.2793               135.0057
 Red. masses --      2.4417                 2.6439                 3.1925
 Frc consts  --      0.0140                 0.0241                 0.0343
 IR Inten    --      0.9281                 0.4168                 1.0249

                      7                      8                      9
                      A                      A                      A
 Frequencies --    158.1159               203.4464               231.4697
 Red. masses --      3.1421                 4.6629                 1.7742
 Frc consts  --      0.0463                 0.1137                 0.0560
 IR Inten    --      0.4489                 3.6322                 4.1240

                     10                     11                     12
                      A                      A                      A
 Frequencies --    244.9482               251.0319               278.7698
 Red. masses --      1.6509                 2.1087                 2.0714
 Frc consts  --      0.0584                 0.0783                 0.0948
 IR Inten    --      4.0301                 0.9135                 0.4898

                     13                     14                     15
                      A                      A                      A
 Frequencies --    301.9146               318.4761               347.3703
 Red. masses --      2.2546                 1.1337                 2.8552
 Frc consts  --      0.1211                 0.0677                 0.2030
 IR Inten    --     12.3430                 0.4715                 6.3752

                     16                     17                     18
                      A                      A                      A
 Frequencies --    376.7833               384.9510               407.9771
 Red. masses --      2.2257                 2.8011                 3.3414
 Frc consts  --      0.1862                 0.2446                 0.3277
 IR Inten    --     15.0846                 5.7247                 8.4718

                     19                     20                     21
                      A                      A                      A
 Frequencies --    479.1039               503.1906               513.7683
 Red. masses --      4.5290                 3.5566                 3.2967
 Frc consts  --      0.6125                 0.5306                 0.5127
 IR Inten    --      1.8443                 2.4917                 3.8980

                     22                     23                     24
                      A                      A                      A
 Frequencies --    526.8402               602.8342               620.5390
 Red. masses --     11.8188                 3.2911                 2.7275
 Frc consts  --      1.9328                 0.7047                 0.6188
 IR Inten    --      8.0029                43.3039                 6.2901

                     25                     26                     27
                      A                      A                      A
 Frequencies --    646.1667               703.9431               778.5478
 Red. masses --      2.8201                 3.6320                 1.3967
 Frc consts  --      0.6937                 1.0604                 0.4988
 IR Inten    --      7.3975                18.6638                27.8032

                     28                     29                     30
                      A                      A                      A
 Frequencies --    827.0149               836.2255               855.1163
 Red. masses --      2.0309                 3.7790                 2.6249
 Frc consts  --      0.8184                 1.5569                 1.1309
 IR Inten    --     13.1063                15.9160                 3.1420

                     31                     32                     33
                      A                      A                      A
 Frequencies --    914.3861               926.0916               951.4328
 Red. masses --      2.8402                 3.3692                 2.6615
 Frc consts  --      1.3991                 1.7025                 1.4195
 IR Inten    --      5.3064                66.0451                23.0417

                     34                     35                     36
                      A                      A                      A
 Frequencies --    971.5683               985.3822              1012.6885
 Red. masses --      3.0968                 2.1581                 1.8278
 Frc consts  --      1.7223                 1.2346                 1.1044
 IR Inten    --     42.8146                 1.3946                35.1764

                     37                     38                     39
                      A                      A                      A
 Frequencies --   1049.8603              1067.1251              1071.4266
 Red. masses --      1.7847                 2.2850                 2.1163
 Frc consts  --      1.1590                 1.5331                 1.4314
 IR Inten    --     26.0905                30.9478                 9.6506

                     40                     41                     42
                      A                      A                      A
 Frequencies --   1090.8664              1118.7890              1135.6192
 Red. masses --      1.5256                 1.9891                 1.2620
 Frc consts  --      1.0697                 1.4669                 0.9589
 IR Inten    --      6.1855                75.8079                 1.6577

                     43                     44                     45
                      A                      A                      A
 Frequencies --   1167.0441              1192.9989              1215.6947
 Red. masses --      3.8705                 1.4120                 2.1088
 Frc consts  --      3.1059                 1.1840                 1.8362
 IR Inten    --     22.3135                 3.6202                23.0816

                     46                     47                     48
                      A                      A                      A
 Frequencies --   1232.2030              1239.6391              1254.3807
 Red. masses --      1.4905                 1.4542                 1.4360
 Frc consts  --      1.3333                 1.3166                 1.3312
 IR Inten    --     20.0870                17.2533                10.0183

                     49                     50                     51
                      A                      A                      A
 Frequencies --   1275.8080              1290.8843              1308.9130
 Red. masses --      2.5651                 2.1392                 2.4621
 Frc consts  --      2.4599                 2.1003                 2.4853
 IR Inten    --     13.8365                61.0789                16.3809

                     52                     53                     54
                      A                      A                      A
 Frequencies --   1325.8717              1337.2227              1343.4405
 Red. masses --      1.3270                 1.8173                 1.2748
 Frc consts  --      1.3745                 1.9147                 1.3555
 IR Inten    --      0.9143                17.6319                13.2431

                     55                     56                     57
                      A                      A                      A
 Frequencies --   1352.8820              1368.6279              1390.0506
 Red. masses --      1.4916                 1.4278                 1.6995
 Frc consts  --      1.6085                 1.5757                 1.9347
 IR Inten    --     15.6113                 3.7012                20.7128

                     58                     59                     60
                      A                      A                      A
 Frequencies --   1470.6899              1501.4981              1511.3548
 Red. masses --      1.1496                 1.1586                 1.0514
 Frc consts  --      1.4650                 1.5390                 1.4150
 IR Inten    --      0.1395                 7.5479                 5.1260

                     61                     62                     63
                      A                      A                      A
 Frequencies --   1514.0693              1517.4254              1522.5425
 Red. masses --      1.0736                 1.0936                 1.0900
 Frc consts  --      1.4501                 1.4836                 1.4888
 IR Inten    --      3.1053                 3.1944                 6.7439

                     64                     65                     66
                      A                      A                      A
 Frequencies --   1525.9700              1530.0971              1540.4229
 Red. masses --      1.0618                 1.0815                 1.0570
 Frc consts  --      1.4567                 1.4918                 1.4778
 IR Inten    --      5.7163                12.4502                 9.2115

                     67                     68                     69
                      A                      A                      A
 Frequencies --   1550.0428              1567.6563              1731.4769
 Red. masses --      1.1040                 1.0573                 1.0612
 Frc consts  --      1.5628                 1.5309                 1.8745
 IR Inten    --      6.6723                 3.4205                12.5925

                     70                     71                     72
                      A                      A                      A
 Frequencies --   2226.3869              2952.8558              3014.4045
 Red. masses --     13.9406                 1.0615                 1.0461
 Frc consts  --     40.7129                 5.4530                 5.6007
 IR Inten    --    555.8218                67.9874                65.4513

                     73                     74                     75
                      A                      A                      A
 Frequencies --   3064.0597              3064.6476              3066.5636
 Red. masses --      1.0694                 1.0680                 1.0973
 Frc consts  --      5.9154                 5.9097                 6.0795
 IR Inten    --     37.5734                59.5387                33.9839

                     76                     77                     78
                      A                      A                      A
 Frequencies --   3074.5946              3080.7408              3086.6746
 Red. masses --      1.0679                 1.0603                 1.0678
 Frc consts  --      5.9478                 5.9292                 5.9942
 IR Inten    --     23.4899                61.5886                 4.7277

                     79                     80                     81
                      A                      A                      A
 Frequencies --   3095.4721              3120.9679              3127.1875
 Red. masses --      1.0985                 1.1045                 1.1000
 Frc consts  --      6.2015                 6.3388                 6.3381
 IR Inten    --     13.1714                 9.4175                34.1521

                     82                     83                     84
                      A                      A                      A
 Frequencies --   3132.6255              3147.5108              3168.8458
 Red. masses --      1.1011                 1.1002                 1.0938
 Frc consts  --      6.3665                 6.4216                 6.4711
 IR Inten    --     46.2970                24.0363                20.0219

                     85                     86                     87
                      A                      A                      A
 Frequencies --   3437.0507              3537.1482              3575.7338
 Red. masses --      1.0500                 1.0912                 1.0752
 Frc consts  --      7.3082                 8.0435                 8.0994
 IR Inten    --      8.2959                 0.1590                 5.1281

 - Thermochemistry -
 -------------------
 Temperature   298.150 Kelvin.  Pressure   1.00000 Atm.
 Atom     1 has atomic number  6 and mass  12.00000

 Molecular mass:   199.15454 amu.
 Principal axes and moments of inertia in atomic units:
                           1         2         3
     Eigenvalues --  2259.881992908.363993351.22215
           X            0.99970   0.01291  -0.02101
           Y           -0.01237   0.99959   0.02564
           Z            0.02134  -0.02537   0.99945
 This molecule is an asymmetric top.
 Rotational symmetry number  1.
 Warning -- assumption of classical behavior for rotation
           may cause significant error
 Rotational temperatures (Kelvin)      0.03833     0.02978     0.02585
 Rotational constants (GHZ):           0.79860     0.62053     0.53853
 Zero-point vibrational energy     705567.0 (Joules/Mol)
                                  168.63455 (Kcal/Mol)
 Warning -- explicit consideration of  24 degrees of freedom as
           vibrations may cause significant error
 Vibrational temperatures:     35.79    53.95   136.72   142.07   178.81
          (Kelvin)            194.24   227.49   292.71   333.03   352.43
                              361.18   401.09   434.39   458.22   499.79
                              542.11   553.86   586.99   689.32   723.98
                              739.20   758.01   867.34   892.82   929.69
                             1012.82  1120.16  1189.89  1203.14  1230.32
                             1315.60  1332.44  1368.90  1397.87  1417.75
                             1457.03  1510.51  1535.35  1541.54  1569.51
                             1609.69  1633.90  1679.12  1716.46  1749.11
                             1772.87  1783.56  1804.77  1835.60  1857.29
                             1883.23  1907.63  1923.97  1932.91  1946.50
                             1969.15  1999.97  2115.99  2160.32  2174.50
                             2178.41  2183.24  2190.60  2195.53  2201.47
                             2216.32  2230.17  2255.51  2491.21  3203.27
                             4248.50  4337.06  4408.50  4409.34  4412.10
                             4423.66  4432.50  4441.04  4453.69  4490.38
                             4499.33  4507.15  4528.57  4559.26  4945.15
                             5089.17  5144.68

 Zero-point correction=                           0.268736 (Hartree/Particle)
 Thermal correction to Energy=                    0.283797
 Thermal correction to Enthalpy=                  0.284741
 Thermal correction to Gibbs Free Energy=         0.226416
 Sum of electronic and zero-point Energies=           -659.836224
 Sum of electronic and thermal Energies=              -659.821164
 Sum of electronic and thermal Enthalpies=            -659.820220
 Sum of electronic and thermal Free Energies=         -659.878544

                     E (Thermal)             CV                S
                      KCal/Mol        Cal/Mol-Kelvin    Cal/Mol-Kelvin
 Total                  178.085             56.444            122.755
 Electronic               0.000              0.000              0.000
 Translational            0.889              2.981             41.772
 Rotational               0.889              2.981             31.466
 Vibrational            176.308             50.482             49.518
 Vibration     1          0.593              1.985              6.201
 Vibration     2          0.594              1.982              5.387
 Vibration     3          0.603              1.953              3.554
 Vibration     4          0.604              1.950              3.479
 Vibration     5          0.610              1.929              3.033
 Vibration     6          0.613              1.918              2.873
 Vibration     7          0.621              1.894              2.572
 Vibration     8          0.639              1.835              2.102
 Vibration     9          0.653              1.793              1.868
 Vibration    10          0.660              1.771              1.767
 Vibration    11          0.663              1.761              1.723
 Vibration    12          0.679              1.713              1.541
 Vibration    13          0.694              1.670              1.406
 Vibration    14          0.705              1.638              1.318
 Vibration    15          0.725              1.581              1.178
 Vibration    16          0.747              1.520              1.052
 Vibration    17          0.754              1.502              1.020
 Vibration    18          0.773              1.453              0.934
 Vibration    19          0.836              1.296              0.712
 Vibration    20          0.859              1.243              0.650
 Vibration    21          0.869              1.219              0.625
 Vibration    22          0.882              1.191              0.594
 Vibration    23          0.961              1.026              0.445
 Vibration    24          0.981              0.989              0.416

 Optimization completed.
    -- Stationary point found.

 1\1\GINC-NODE371\Freq\RB3LYP\6-31G(d)\C7H17N7\VSC10255\10-Dec-2020\0\\
 #N Geom=AllCheck Guess=TCheck SCRF=Check GenChk RB3LYP/6-31G(d) Freq\\
 CID_151434821_JID_4406_neutraal\\0,1\C,1.1183400465,0.0577069684,-0.28
 16942089\N,0.2305090861,1.2088851571,-0.4033740339\C,-1.1406815708,0.8
 349535161,-0.0978346442\C,0.7049182315,2.507852327,0.0395898747\C,2.07
 73264808,2.8632664239,-0.5727258259\C,2.1799075877,4.3904604758,-0.447
 7104175\C,0.7234249847,4.9107771692,-0.5648998096\C,-0.1789664661,3.65
 5637072,-0.5091082773\N,0.8387360738,2.7525163409,1.5262199549\N,-0.35

 Normal termination of Gaussian 16 at Thu Dec 10 10:02:01 2020.

 ----------------------------------------------------------------------
 # B3LYP/6-311++G(d,p) empiricaldispersion=gd3bj scf=xqc pop=npa geom=c
 heck
 ----------------------------------------------------------------------

 ---------------------------------------
 CID_151434821_JID_4406_Energie_neutraal
 ---------------------------------------
 Structure from the checkpoint file:  "JID_4406.chk"
 Charge =  0 Multiplicity = 1

 SCF Done:  E(RB3LYP) =  -660.298266536     A.U. after   16 cycles
 Normal termination of Gaussian 16 at Thu Dec 10 10:06:11 2020.

 ----------------------------------------------------------------------
 # B3LYP/6-311++G(d,p) empiricaldispersion=gd3bj scf=xqc pop=npa geom=c
 heck
 ----------------------------------------------------------------------

 -------------------------------------
 CID_151434821_JID_4406_Energie_kation
 -------------------------------------
 Structure from the checkpoint file:  "JID_4406.chk"
 Charge =  1 Multiplicity = 2

 SCF Done:  E(UB3LYP) =  -660.019233370     A.U. after   25 cycles
 Normal termination of Gaussian 16 at Thu Dec 10 10:17:49 2020.
 Gaussian 16:  ES64L-G16RevA.03 25-Dec-2016

 ------------------------------------
 CID_151434821_JID_4406_Energie_anion
 ------------------------------------
 Structure from the checkpoint file:  "JID_4406.chk"
 Charge = -1 Multiplicity = 2

                         Standard orientation:
 ---------------------------------------------------------------------
 Center     Atomic      Atomic             Coordinates (Angstroms)
 Number     Number       Type             X           Y           Z
 ---------------------------------------------------------------------
      1          6           0        0.832407    2.541050   -0.784495
      2          7           0        1.243286    1.498411    0.149499
      3          6           0        1.179267    1.981124    1.519256
      4          6           0        0.848714    0.126427   -0.116149
      5          6           0        1.209713   -0.312746   -1.551962
      6          6           0        1.221859   -1.847624   -1.502205
      7          6           0        1.677261   -2.208223   -0.064018
      8          6           0        1.674791   -0.878025    0.725518
      9          7           0       -0.602464   -0.252156    0.080303
     10          7           0       -1.121742   -0.181608    1.401796
     11          7           0       -1.357716   -1.456160    1.985829
     12          7           0       -1.395752    0.605688   -0.808107
     13          7           0       -2.583915    0.259693   -0.813848
     14          7           0       -3.708515    0.056195   -0.863498
     15          1           0        1.512232    3.395099   -0.668933
     16          1           0       -0.196567    2.894064   -0.620399
     17          1           0        0.907921    2.187612   -1.812932
     18          1           0        0.165182    2.289058    1.835356
     19          1           0        1.556397    1.228290    2.216940
     20          1           0        1.822395    2.864613    1.615384
     21          1           0        0.515447    0.074953   -2.299089
     22          1           0        2.207760    0.082990   -1.769784
     23          1           0        1.875868   -2.273076   -2.269552
     24          1           0        0.213095   -2.228325   -1.683143
     25          1           0        2.676133   -2.655512   -0.050980
     26          1           0        1.002400   -2.944980    0.384000
     27          1           0        2.685229   -0.464311    0.788516
     28          1           0        1.313636   -0.998032    1.750403
     29          1           0       -0.493319    0.324745    2.014064
     30          1           0       -2.267101   -1.768903    1.651810
     31          1           0       -0.673060   -2.130623    1.638852
 ---------------------------------------------------------------------

 SCF Done:  E(UB3LYP) =  -660.292157610     A.U. after   30 cycles

 The electronic state is 2-A.
 Alpha  occ. eigenvalues --  -14.30637 -14.24486 -14.24334 -14.22830 -14.22037
 Alpha  occ. eigenvalues --  -14.21947 -14.19850 -10.12822 -10.08647 -10.07299
 Alpha  occ. eigenvalues --  -10.06259 -10.06186 -10.05767 -10.05484  -0.99008
 Alpha  occ. eigenvalues --   -0.91053  -0.83745  -0.81994  -0.74763  -0.71276
 Alpha  occ. eigenvalues --   -0.63217  -0.61491  -0.59237  -0.58794  -0.52492
 Alpha  occ. eigenvalues --   -0.47068  -0.46239  -0.44268  -0.41209  -0.40593
 Alpha  occ. eigenvalues --   -0.37833  -0.37522  -0.36068  -0.35417  -0.34376
 Alpha  occ. eigenvalues --   -0.34143  -0.33603  -0.31112  -0.30494  -0.30113
 Alpha  occ. eigenvalues --   -0.28197  -0.27007  -0.26221  -0.24433  -0.23694
 Alpha  occ. eigenvalues --   -0.23444  -0.22756  -0.21497  -0.21304  -0.19202
 Alpha  occ. eigenvalues --   -0.16595  -0.13454  -0.11459  -0.08332   0.04771
 Alpha virt. eigenvalues --    0.06894   0.07467   0.08288   0.08842   0.09784
 Alpha virt. eigenvalues --    0.10093   0.10693   0.11459   0.11901   0.12639
 Alpha virt. eigenvalues --    0.13098   0.13496   0.13602   0.14399   0.14956

  Beta  occ. eigenvalues --  -14.30278 -14.24483 -14.24172 -14.22882 -14.22029
  Beta  occ. eigenvalues --  -14.21428 -14.19851 -10.12815 -10.08625 -10.07276
  Beta  occ. eigenvalues --  -10.06239 -10.06166 -10.05759 -10.05471  -0.98338
  Beta  occ. eigenvalues --   -0.90860  -0.83553  -0.81881  -0.74603  -0.71185
  Beta  occ. eigenvalues --   -0.63137  -0.61454  -0.59189  -0.58631  -0.52449
  Beta  occ. eigenvalues --   -0.46962  -0.46097  -0.44044  -0.41154  -0.40553
  Beta  occ. eigenvalues --   -0.37742  -0.37378  -0.35412  -0.35066  -0.34323
  Beta  occ. eigenvalues --   -0.33807  -0.33131  -0.30834  -0.30416  -0.29262
  Beta  occ. eigenvalues --   -0.28059  -0.26971  -0.26185  -0.24382  -0.23639
  Beta  occ. eigenvalues --   -0.23329  -0.22715  -0.21455  -0.20668  -0.18993
  Beta  occ. eigenvalues --   -0.16475  -0.13292  -0.11389  -0.08182
  Beta virt. eigenvalues --    0.07226   0.07991   0.08526   0.09194   0.09972
  Beta virt. eigenvalues --    0.10359   0.10803   0.11122   0.11565   0.12094
  Beta virt. eigenvalues --    0.12770   0.13201   0.13710   0.13748   0.14546

 Mulliken charges and spin densities:
               1          2
     1  C    0.175866  -0.441812
     2  N    0.196001   0.187005
     3  C    0.349337  -0.585833
     4  C   -2.564198   0.596699
     5  C    0.326452  -0.409270
     6  C   -0.326486  -0.190755
     7  C    0.435552  -0.706740
     8  C    0.732843  -0.823492
     9  N    0.704722   0.014809
    10  N   -0.170479   0.002640
    11  N   -0.439892  -0.060190
    12  N   -0.196058   0.033603
    13  N    0.321463   0.098190
    14  N   -0.446071   0.344446
    15  H   -0.135350   0.272146
    16  H    0.062612   0.096253
    17  H    0.002474   0.145754
    18  H    0.008661   0.115372
    19  H   -0.217546   0.369385
    20  H   -0.245098   0.400248
    21  H    0.131733   0.043867
    22  H   -0.065463   0.235429
    23  H   -0.089515   0.238156
    24  H    0.164116  -0.019074
    25  H   -0.289029   0.438840
    26  H   -0.011768   0.134295
    27  H   -0.308765   0.510820
    28  H    0.176690  -0.015139
    29  H    0.281973  -0.024282
    30  H    0.232303   0.009546
    31  H    0.202919  -0.010916
 Sum of Mulliken charges =  -1.00000   1.00000

 Dipole moment (field-independent basis, Debye):
    X=             -0.5682    Y=             -1.3895    Z=              0.1234  Tot=              1.5062
 Quadrupole moment (field-independent basis, Debye-Ang):
   XX=           -150.8073   YY=           -117.3055   ZZ=           -113.6580
   XY=              2.7462   XZ=             -3.8549   YZ=             -1.2347

 Summary of Natural Population Analysis:

                                       Natural Population
                Natural  -----------------------------------------------
    Atom  No    Charge         Core      Valence    Rydberg      Total
 -----------------------------------------------------------------------
      C    1   -0.17251      0.99963     2.16451    0.00837     3.17251
      N    2   -0.29094      0.99966     2.77684    0.01444     3.79094
      C    3   -0.18184      0.99963     2.17326    0.00895     3.18184
      C    4    0.17362      0.99951     1.80522    0.02165     2.82638
      C    5   -0.19870      0.99957     2.18963    0.00951     3.19870
      C    6   -0.19067      0.99964     2.18282    0.00821     3.19067
      C    7   -0.19062      0.99964     2.18207    0.00890     3.19062
      C    8   -0.20360      0.99957     2.19351    0.01053     3.20360
      N    9   -0.12145      0.99966     2.60413    0.01766     3.62145
      N   10   -0.16918      0.99974     2.65360    0.01584     3.66918
      N   11   -0.32384      0.99978     2.81365    0.01042     3.82384
      N   12   -0.14955      0.99971     2.63482    0.01502     3.64955
      N   13    0.14043      0.99972     2.34420    0.01565     3.35957
      N   14    0.00690      0.99982     2.47948    0.01380     3.49310
      H   15    0.08814      0.00000     0.41076    0.00111     0.41186
      H   16    0.09055      0.00000     0.40799    0.00146     0.40945
      H   17    0.09823      0.00000     0.40067    0.00110     0.40177
      H   18    0.08096      0.00000     0.41733    0.00171     0.41904
      H   19    0.09613      0.00000     0.40247    0.00140     0.40387
      H   20    0.09704      0.00000     0.40184    0.00113     0.40296
      H   21    0.11260      0.00000     0.38630    0.00110     0.38740
      H   22    0.10298      0.00000     0.39554    0.00148     0.39702
      H   23    0.09714      0.00000     0.40197    0.00089     0.40286
      H   24    0.09962      0.00000     0.39879    0.00159     0.40038
      H   25    0.09999      0.00000     0.39859    0.00141     0.40001
      H   26    0.09146      0.00000     0.40727    0.00127     0.40854
      H   27    0.11086      0.00000     0.38655    0.00259     0.38914
      H   28    0.09965      0.00000     0.39878    0.00157     0.40035
      H   29    0.17047      0.00000     0.32543    0.00410     0.32953
      H   30    0.17167      0.00000     0.32641    0.00192     0.32833
      H   31    0.16446      0.00000     0.33282    0.00272     0.33554
 =======================================================================
   * Total *   -0.00000     13.99526    39.79724    0.20749    54.00000

 Normal termination of Gaussian 16 at Thu Dec 10 10:30:56 2020.
