 Gaussian 16, Revision A.03,

 -----------------------------------------------------------
 # opt freq B3LYP/6-31G(d) empiricaldispersion=gd3bj scf=xqc
 -----------------------------------------------------------

 -------------------------------
 CID_123203782_JID_7758_neutraal
 -------------------------------
 Symbolic Z-matrix:
 Charge =  0 Multiplicity = 1

 SCF Done:  E(RB3LYP) =  -764.967488926     A.U. after   15 cycles
 SCF Done:  E(RB3LYP) =  -764.970978090     A.U. after   14 cycles
 SCF Done:  E(RB3LYP) =  -764.973535021     A.U. after   13 cycles
 SCF Done:  E(RB3LYP) =  -764.974333202     A.U. after   14 cycles
 SCF Done:  E(RB3LYP) =  -764.975204862     A.U. after   13 cycles
 SCF Done:  E(RB3LYP) =  -764.975434007     A.U. after   13 cycles
 SCF Done:  E(RB3LYP) =  -764.975523583     A.U. after   12 cycles
 SCF Done:  E(RB3LYP) =  -764.975566928     A.U. after   11 cycles
 SCF Done:  E(RB3LYP) =  -764.975572164     A.U. after   10 cycles
 SCF Done:  E(RB3LYP) =  -764.975572917     A.U. after    9 cycles
 SCF Done:  E(RB3LYP) =  -764.975573358     A.U. after    8 cycles
 SCF Done:  E(RB3LYP) =  -764.975573456     A.U. after    8 cycles
 SCF Done:  E(RB3LYP) =  -764.975573468     A.U. after    7 cycles
 Optimization completed.
    -- Stationary point found.
 Normal termination of Gaussian 16 at Sun Dec 13 20:11:07 2020.

 --------------------------------------------------------------------
 #N Geom=AllCheck Guess=TCheck SCRF=Check GenChk RB3LYP/6-31G(d) Freq
 --------------------------------------------------------------------

 Structure from the checkpoint file:  "JID_7758.chk"
 -------------------------------
 CID_123203782_JID_7758_neutraal
 -------------------------------
 Charge =  0 Multiplicity = 1

 SCF Done:  E(RB3LYP) =  -764.975573468     A.U. after    1 cycles

  Exact polarizability: 156.683   2.604 158.424 -17.581   7.787 117.941
 Approx polarizability: 207.654   8.396 273.461 -30.871  22.754 196.889

                      1                      2                      3
                      A                      A                      A
 Frequencies --     27.6221                31.1722                62.7925
 Red. masses --      5.1991                 8.4188                 4.2646
 Frc consts  --      0.0023                 0.0048                 0.0099
 IR Inten    --      0.3135                 0.0834                 0.3679

                      4                      5                      6
                      A                      A                      A
 Frequencies --     69.2300               117.0437               131.3576
 Red. masses --      5.1668                 3.4825                 2.5474
 Frc consts  --      0.0146                 0.0281                 0.0259
 IR Inten    --      0.1661                 0.4504                 2.1045

                      7                      8                      9
                      A                      A                      A
 Frequencies --    138.3983               154.1472               232.1579
 Red. masses --      5.1919                 4.6806                 3.9668
 Frc consts  --      0.0586                 0.0655                 0.1260
 IR Inten    --      0.3065                 2.4160                 1.9327

                     10                     11                     12
                      A                      A                      A
 Frequencies --    251.8309               299.2414               310.3239
 Red. masses --      3.6268                 3.8618                 2.4113
 Frc consts  --      0.1355                 0.2037                 0.1368
 IR Inten    --      3.0358                 1.6778                 2.4002

                     13                     14                     15
                      A                      A                      A
 Frequencies --    364.1671               396.5907               417.6754
 Red. masses --      5.4966                 3.6914                 2.9772
 Frc consts  --      0.4295                 0.3421                 0.3060
 IR Inten    --      1.3202                11.9723                 0.0787

                     16                     17                     18
                      A                      A                      A
 Frequencies --    442.3234               448.5266               457.6155
 Red. masses --      2.4929                 2.9207                 2.4693
 Frc consts  --      0.2874                 0.3462                 0.3047
 IR Inten    --      3.6337                12.4573                 4.4575

                     19                     20                     21
                      A                      A                      A
 Frequencies --    495.9140               511.1963               561.3125
 Red. masses --      3.7838                 4.0039                 2.7664
 Frc consts  --      0.5483                 0.6165                 0.5135
 IR Inten    --      5.5733                14.1754                22.9931

                     22                     23                     24
                      A                      A                      A
 Frequencies --    583.5364               614.9842               624.9056
 Red. masses --      2.3920                 5.0645                 4.2681
 Frc consts  --      0.4799                 1.1285                 0.9820
 IR Inten    --      7.1580                10.8274                29.7656

                     25                     26                     27
                      A                      A                      A
 Frequencies --    637.9789               718.3293               753.4396
 Red. masses --      6.1904                 1.8866                 2.0711
 Frc consts  --      1.4845                 0.5736                 0.6927
 IR Inten    --      0.0260                29.2722                30.1231

                     28                     29                     30
                      A                      A                      A
 Frequencies --    815.0251               831.0040               834.0156
 Red. masses --      2.7037                 3.2273                 2.9490
 Frc consts  --      1.0582                 1.3131                 1.2086
 IR Inten    --      0.7046                11.0659                14.5181

                     31                     32                     33
                      A                      A                      A
 Frequencies --    864.3798               875.4580               882.4802
 Red. masses --      1.2517                 2.5788                 2.6959
 Frc consts  --      0.5510                 1.1645                 1.2370
 IR Inten    --      0.4959                 4.3922                10.1727

                     34                     35                     36
                      A                      A                      A
 Frequencies --    903.2881               933.7629               967.8243
 Red. masses --      2.4866                 1.5002                 1.8586
 Frc consts  --      1.1954                 0.7707                 1.0257
 IR Inten    --      6.9815                 9.8169                 2.7413

                     37                     38                     39
                      A                      A                      A
 Frequencies --    970.8812               990.4730               999.5822
 Red. masses --      1.4271                 2.7395                 1.2693
 Frc consts  --      0.7926                 1.5834                 0.7472
 IR Inten    --      0.1073                19.1041                 0.1741

                     40                     41                     42
                      A                      A                      A
 Frequencies --   1022.5624              1038.1831              1053.6651
 Red. masses --      6.1863                 4.0992                 2.7143
 Frc consts  --      3.8112                 2.6032                 1.7754
 IR Inten    --      2.0561                 7.1105                57.8296

                     43                     44                     45
                      A                      A                      A
 Frequencies --   1061.4761              1102.6150              1115.3354
 Red. masses --      2.2605                 2.0064                 1.6861
 Frc consts  --      1.5007                 1.4372                 1.2358
 IR Inten    --      7.6996                33.6341                 8.7190

                     46                     47                     48
                      A                      A                      A
 Frequencies --   1120.5042              1172.8896              1180.8432
 Red. masses --      5.3609                 2.0911                 1.5202
 Frc consts  --      3.9657                 1.6949                 1.2489
 IR Inten    --     95.1892                17.5095                19.9753

                     49                     50                     51
                      A                      A                      A
 Frequencies --   1183.8382              1194.7215              1216.2531
 Red. masses --      1.4039                 1.0999                 1.1443
 Frc consts  --      1.1592                 0.9250                 0.9973
 IR Inten    --     33.2761                 0.2391                 0.4575

                     52                     53                     54
                      A                      A                      A
 Frequencies --   1227.5952              1237.8671              1259.0114
 Red. masses --      3.2036                 2.0547                 1.1614
 Frc consts  --      2.8445                 1.8550                 1.0846
 IR Inten    --     18.0436               119.4011                 1.9800

                     55                     56                     57
                      A                      A                      A
 Frequencies --   1297.5778              1302.8333              1315.4795
 Red. masses --      1.2074                 1.2897                 1.6353
 Frc consts  --      1.1978                 1.2898                 1.6673
 IR Inten    --      6.7634                 3.6081                22.3499

                     58                     59                     60
                      A                      A                      A
 Frequencies --   1345.5866              1367.7131              1383.6487
 Red. masses --      2.4358                 2.0387                 1.3099
 Frc consts  --      2.5984                 2.2470                 1.4775
 IR Inten    --      9.4320                 1.2535                 2.6756

                     61                     62                     63
                      A                      A                      A
 Frequencies --   1390.8647              1394.1472              1396.8275
 Red. masses --      1.3964                 1.3987                 1.2506
 Frc consts  --      1.5916                 1.6017                 1.4376
 IR Inten    --     47.0891                 3.3415                11.7398

                     64                     65                     66
                      A                      A                      A
 Frequencies --   1411.4716              1419.6345              1431.6303
 Red. masses --      1.3182                 1.4218                 1.2439
 Frc consts  --      1.5473                 1.6883                 1.5021
 IR Inten    --      5.1824                10.5025                 5.4675

                     67                     68                     69
                      A                      A                      A
 Frequencies --   1444.8649              1494.8656              1496.6954
 Red. masses --      1.2621                 1.0848                 1.0931
 Frc consts  --      1.5524                 1.4283                 1.4428
 IR Inten    --     49.3762                 7.5038                 7.3338

                     70                     71                     72
                      A                      A                      A
 Frequencies --   1504.5047              1505.9493              1525.6088
 Red. masses --      2.1366                 1.1221                 1.0981
 Frc consts  --      2.8495                 1.4993                 1.5058
 IR Inten    --      5.8101                 8.7256                 1.4372

                     73                     74                     75
                      A                      A                      A
 Frequencies --   1546.8168              1646.8121              1664.9473
 Red. masses --      2.1571                 5.4548                 5.5437
 Frc consts  --      3.0409                 8.7160                 9.0542
 IR Inten    --      3.9464                 1.0978                 1.4499

                     76                     77                     78
                      A                      A                      A
 Frequencies --   1708.1833              1773.5873              3017.6672
 Red. masses --      8.9906                11.3637                 1.0684
 Frc consts  --     15.4563                21.0609                 5.7320
 IR Inten    --     15.3109               111.5700                21.3075

                     79                     80                     81
                      A                      A                      A
 Frequencies --   3021.4586              3044.1005              3054.6067
 Red. masses --      1.0690                 1.0603                 1.0616
 Frc consts  --      5.7502                 5.7888                 5.8362
 IR Inten    --     60.3837                47.4004                29.6601

                     82                     83                     84
                      A                      A                      A
 Frequencies --   3077.1301              3088.1491              3100.5778
 Red. masses --      1.0832                 1.1053                 1.0958
 Frc consts  --      6.0431                 6.2105                 6.2066
 IR Inten    --      9.1061                 9.5333                40.8153

                     85                     86                     87
                      A                      A                      A
 Frequencies --   3114.6761              3119.7802              3120.8827
 Red. masses --      1.0899                 1.0958                 1.1051
 Frc consts  --      6.2299                 6.2839                 6.3417
 IR Inten    --     42.6402                19.1539                32.9533

                     88                     89                     90
                      A                      A                      A
 Frequencies --   3171.6310              3178.8781              3191.2755
 Red. masses --      1.0874                 1.0875                 1.0890
 Frc consts  --      6.4445                 6.4746                 6.5346
 IR Inten    --     10.1627                 6.8220                 4.9426

                     91                     92                     93
                      A                      A                      A
 Frequencies --   3201.1522              3213.3396              3423.9502
 Red. masses --      1.0933                 1.0977                 1.0730
 Frc consts  --      6.6011                 6.6783                 7.4112
 IR Inten    --     29.0030                19.2238                45.4684

 - Thermochemistry -
 -------------------
 Temperature   298.150 Kelvin.  Pressure   1.00000 Atm.
 Atom     1 has atomic number  6 and mass  12.00000

 Molecular mass:   232.12118 amu.
 Principal axes and moments of inertia in atomic units:
                           1         2         3
     Eigenvalues --  2261.205875524.402666317.95634
           X            0.99996   0.00604  -0.00687
           Y           -0.00601   0.99998   0.00352
           Z            0.00689  -0.00348   0.99997
 This molecule is an asymmetric top.
 Rotational symmetry number  1.
 Warning -- assumption of classical behavior for rotation
           may cause significant error
 Rotational temperatures (Kelvin)      0.03830     0.01568     0.01371
 Rotational constants (GHZ):           0.79813     0.32669     0.28565
 Zero-point vibrational energy     728638.6 (Joules/Mol)
                                  174.14879 (Kcal/Mol)
 Warning -- explicit consideration of  23 degrees of freedom as
           vibrations may cause significant error
 Vibrational temperatures:     39.74    44.85    90.34    99.61   168.40
          (Kelvin)            188.99   199.12   221.78   334.02   362.33
                              430.54   446.49   523.96   570.61   600.94
                              636.40   645.33   658.41   713.51   735.50
                              807.60   839.58   884.83   899.10   917.91
                             1033.52  1084.03  1172.64  1195.63  1199.96
                             1243.65  1259.59  1269.69  1299.63  1343.48
                             1392.48  1396.88  1425.07  1438.18  1471.24
                             1493.71  1515.99  1527.23  1586.42  1604.72
                             1612.16  1687.53  1698.97  1703.28  1718.94
                             1749.92  1766.24  1781.01  1811.44  1866.93
                             1874.49  1892.68  1936.00  1967.83  1990.76
                             2001.14  2005.87  2009.72  2030.79  2042.54
                             2059.80  2078.84  2150.78  2153.41  2164.65
                             2166.73  2195.01  2225.52  2369.40  2395.49
                             2457.69  2551.80  4341.75  4347.21  4379.78
                             4394.90  4427.30  4443.16  4461.04  4481.32
                             4488.67  4490.25  4563.27  4573.70  4591.53
                             4605.74  4623.28  4926.30

 Zero-point correction=                           0.277524 (Hartree/Particle)
 Thermal correction to Energy=                    0.292518
 Thermal correction to Enthalpy=                  0.293462
 Thermal correction to Gibbs Free Energy=         0.233876
 Sum of electronic and zero-point Energies=           -764.698050
 Sum of electronic and thermal Energies=              -764.683055
 Sum of electronic and thermal Enthalpies=            -764.682111
 Sum of electronic and thermal Free Energies=         -764.741698

                     E (Thermal)             CV                S
                      KCal/Mol        Cal/Mol-Kelvin    Cal/Mol-Kelvin
 Total                  183.558             57.879            125.411
 Electronic               0.000              0.000              0.000
 Translational            0.889              2.981             42.228
 Rotational               0.889              2.981             32.734
 Vibrational            181.781             51.917             50.448
 Vibration     1          0.593              1.984              5.993
 Vibration     2          0.594              1.983              5.753
 Vibration     3          0.597              1.972              4.367
 Vibration     4          0.598              1.969              4.175
 Vibration     5          0.608              1.935              3.149
 Vibration     6          0.612              1.922              2.926
 Vibration     7          0.614              1.915              2.826
 Vibration     8          0.620              1.898              2.620
 Vibration     9          0.653              1.792              1.862
 Vibration    10          0.664              1.760              1.718
 Vibration    11          0.692              1.675              1.421
 Vibration    12          0.699              1.654              1.361
 Vibration    13          0.738              1.546              1.104
 Vibration    14          0.763              1.477              0.975
 Vibration    15          0.781              1.432              0.900
 Vibration    16          0.802              1.378              0.819
 Vibration    17          0.808              1.364              0.800
 Vibration    18          0.816              1.344              0.773
 Vibration    19          0.851              1.259              0.668
 Vibration    20          0.866              1.225              0.631
 Vibration    21          0.917              1.115              0.521
 Vibration    22          0.940              1.067              0.479
 Vibration    23          0.974              1.000              0.425

 Optimization completed.
    -- Stationary point found.
 Normal termination of Gaussian 16 at Sun Dec 13 20:24:51 2020.

 ----------------------------------------------------------------------
 # B3LYP/6-311++G(d,p) empiricaldispersion=gd3bj scf=xqc pop=npa geom=c
 heck
 ----------------------------------------------------------------------

 ---------------------------------------
 CID_123203782_JID_7758_Energie_neutraal
 ---------------------------------------
 Structure from the checkpoint file:  "JID_7758.chk"
 Charge =  0 Multiplicity = 1

 SCF Done:  E(RB3LYP) =  -765.187961819     A.U. after   15 cycles
 Normal termination of Gaussian 16 at Sun Dec 13 20:31:05 2020.

 ----------------------------------------------------------------------
 # B3LYP/6-311++G(d,p) empiricaldispersion=gd3bj scf=xqc pop=npa geom=c
 heck
 ----------------------------------------------------------------------

 -------------------------------------
 CID_123203782_JID_7758_Energie_kation
 -------------------------------------
 Structure from the checkpoint file:  "JID_7758.chk"
 Charge =  1 Multiplicity = 2

 SCF Done:  E(UB3LYP) =  -764.901165615     A.U. after   25 cycles
 Normal termination of Gaussian 16 at Sun Dec 13 20:46:46 2020.
 Gaussian 16:  ES64L-G16RevA.03 25-Dec-2016

 ----------------------------------------------------------------------
 # B3LYP/6-311++G(d,p) empiricaldispersion=gd3bj scf=xqc pop=npa geom=c
 heck
 ----------------------------------------------------------------------

 ------------------------------------
 CID_123203782_JID_7758_Energie_anion
 ------------------------------------
 Structure from the checkpoint file:  "JID_7758.chk"
 Charge = -1 Multiplicity = 2

                         Standard orientation:
 ---------------------------------------------------------------------
 Center     Atomic      Atomic             Coordinates (Angstroms)
 Number     Number       Type             X           Y           Z
 ---------------------------------------------------------------------
      1          6           0       -0.197817   -2.362542   -0.065504
      2          6           0       -0.381274   -1.522216   -1.331990
      3          8           0       -1.475016   -0.611256   -1.170056
      4          6           0       -1.249502    0.279934   -0.077412
      5          6           0       -1.092083   -0.537823    1.231346
      6          7           0       -0.065114   -1.561198    1.147802
      7          6           0        1.286882   -1.198429    1.577552
      8          6           0        2.082569   -0.241898    0.703143
      9          6           0        2.928037   -0.729140   -0.300072
     10          6           0        3.607221    0.143316   -1.151119
     11          6           0        3.455357    1.522639   -1.001883
     12          6           0        2.632697    2.021976    0.009550
     13          6           0        1.957718    1.144352    0.857765
     14          6           0       -2.389282    1.270481    0.093371
     15          8           0       -2.167429    2.323951    0.669810
     16          6           0       -3.809260    0.941521   -0.298778
     17          7           0       -4.255069   -0.124245   -0.834249
     18          1           0       -1.083097   -3.005793    0.046706
     19          1           0        0.676333   -3.015181   -0.163754
     20          1           0        0.528473   -0.956055   -1.568461
     21          1           0       -0.641965   -2.151310   -2.187924
     22          1           0       -0.339640    0.863124   -0.258945
     23          1           0       -2.056443   -1.028567    1.429486
     24          1           0       -0.878950    0.137769    2.064574
     25          1           0        1.191745   -0.772856    2.583551
     26          1           0        1.845624   -2.136646    1.680365
     27          1           0        3.054295   -1.803537   -0.415916
     28          1           0        4.257928   -0.252636   -1.925905
     29          1           0        3.982255    2.204479   -1.663067
     30          1           0        2.518311    3.094236    0.140239
     31          1           0        1.317907    1.541483    1.642429
     32          1           0       -4.504289    1.746919   -0.039233
     33          1           0       -3.475217   -0.761918   -1.032860
 ---------------------------------------------------------------------

 SCF Done:  E(UB3LYP) =  -765.206230535     A.U. after   33 cycles
 SCF Done:  E(UB3LYP) =  -765.206323033     a.u. after    6 cycles

 The electronic state is 2-A.
 Alpha  occ. eigenvalues --  -19.01063 -18.92359 -14.20573 -14.11435 -10.11026
 Alpha  occ. eigenvalues --  -10.10993 -10.09943 -10.09079 -10.09026 -10.08965
 Alpha  occ. eigenvalues --  -10.08876 -10.08846 -10.08768 -10.08418 -10.08039
 Alpha  occ. eigenvalues --  -10.06176 -10.03151  -0.92657  -0.86566  -0.82557
 Alpha  occ. eigenvalues --   -0.76999  -0.72811  -0.68153  -0.66631  -0.65981
 Alpha  occ. eigenvalues --   -0.61695  -0.55765  -0.55119  -0.52126  -0.50394
 Alpha  occ. eigenvalues --   -0.47790  -0.46229  -0.43148  -0.40844  -0.38878
 Alpha  occ. eigenvalues --   -0.38628  -0.37416  -0.36806  -0.35673  -0.35147
 Alpha  occ. eigenvalues --   -0.33670  -0.33427  -0.32723  -0.30433  -0.29130
 Alpha  occ. eigenvalues --   -0.28577  -0.27588  -0.27161  -0.26420  -0.26145
 Alpha  occ. eigenvalues --   -0.25810  -0.25165  -0.23628  -0.22345  -0.20785
 Alpha  occ. eigenvalues --   -0.17111  -0.16953  -0.16268  -0.15875  -0.12652
 Alpha  occ. eigenvalues --   -0.09956  -0.06975   0.04066
 Alpha virt. eigenvalues --    0.05534   0.06582   0.06830   0.07143   0.08094
 Alpha virt. eigenvalues --    0.08922   0.09619   0.09837   0.11015   0.11815
 Alpha virt. eigenvalues --    0.12208   0.12532   0.12943   0.13777   0.14073

  Beta  occ. eigenvalues --  -19.01052 -18.91709 -14.20561 -14.10879 -10.11024
  Beta  occ. eigenvalues --  -10.10990 -10.09942 -10.09078 -10.09019 -10.08939
  Beta  occ. eigenvalues --  -10.08876 -10.08867 -10.08760 -10.08401 -10.08004
  Beta  occ. eigenvalues --  -10.05825 -10.03105  -0.92620  -0.85419  -0.82526
  Beta  occ. eigenvalues --   -0.76969  -0.71903  -0.68130  -0.66555  -0.65927
  Beta  occ. eigenvalues --   -0.61646  -0.55544  -0.55091  -0.52078  -0.50301
  Beta  occ. eigenvalues --   -0.46912  -0.46041  -0.43106  -0.40587  -0.38838
  Beta  occ. eigenvalues --   -0.38521  -0.37364  -0.36777  -0.35597  -0.35100
  Beta  occ. eigenvalues --   -0.33633  -0.33317  -0.32592  -0.30199  -0.29083
  Beta  occ. eigenvalues --   -0.28413  -0.27526  -0.26931  -0.26388  -0.25871
  Beta  occ. eigenvalues --   -0.25473  -0.24951  -0.23421  -0.20704  -0.19792
  Beta  occ. eigenvalues --   -0.16995  -0.16850  -0.16173  -0.13143  -0.12064
  Beta  occ. eigenvalues --   -0.09717  -0.06388
  Beta virt. eigenvalues --    0.05834   0.06634   0.06969   0.07198   0.08162
  Beta virt. eigenvalues --    0.08861   0.09665   0.09825   0.10878   0.11689
  Beta virt. eigenvalues --    0.11918   0.12186   0.12548   0.12879   0.13740

 Mulliken charges and spin densities:
               1          2
     1  C   -0.108885  -0.019329
     2  C   -0.230199  -0.014582
     3  O   -0.104991   0.003068
     4  C    0.109842  -0.027387
     5  C   -0.792012  -0.001448
     6  N    0.208844   0.004679
     7  C   -0.630226  -0.320986
     8  C    0.728448   0.087069
     9  C   -0.079436  -0.041776
    10  C   -0.072316  -0.244234
    11  C    0.057843  -0.366296
    12  C   -0.357435   0.052078
    13  C   -0.321646   0.248284
    14  C   -0.222146   0.291049
    15  O   -0.388269   0.212525
    16  C   -0.311742   0.007571
    17  N   -0.367607   0.298217
    18  H    0.158281  -0.010715
    19  H    0.061980   0.061055
    20  H    0.229223  -0.062367
    21  H    0.126762   0.059777
    22  H    0.279540   0.030852
    23  H    0.189098   0.002387
    24  H    0.164171  -0.012803
    25  H    0.148655   0.001973
    26  H    0.105053   0.059667
    27  H   -0.076215   0.204973
    28  H   -0.236043   0.407615
    29  H    0.072980   0.070512
    30  H    0.135836   0.037912
    31  H    0.180798   0.000244
    32  H    0.126546  -0.007924
    33  H    0.215269  -0.011661
 Sum of Mulliken charges =  -1.00000   1.00000

 Dipole moment (field-independent basis, Debye):
    X=              9.6207    Y=             -3.6427    Z=              1.6139  Tot=             10.4130
 Quadrupole moment (field-independent basis, Debye-Ang):
   XX=           -179.8126   YY=           -123.2782   ZZ=           -116.6183
   XY=             10.5594   XZ=             -4.1235   YZ=             -2.1493

 Summary of Natural Population Analysis:

                                       Natural Population
                Natural  -----------------------------------------------
    Atom  No    Charge         Core      Valence    Rydberg      Total
 -----------------------------------------------------------------------
      C    1   -0.09841      0.99962     2.08771    0.01108     3.09841
      C    2   -0.02284      0.99958     2.01076    0.01250     3.02284
      O    3   -0.30406      0.99988     3.29426    0.00991     4.30406
      C    4    0.01610      0.99951     1.96865    0.01574     2.98390
      C    5   -0.08888      0.99960     2.08019    0.00909     3.08888
      N    6   -0.27632      0.99973     2.76362    0.01297     3.77632
      C    7   -0.08743      0.99958     2.07505    0.01281     3.08743
      C    8   -0.02742      0.99949     2.01819    0.00974     3.02742
      C    9   -0.10493      0.99951     2.09536    0.01006     3.10493
      C   10   -0.09889      0.99957     2.08907    0.01025     3.09889
      C   11   -0.10752      0.99957     2.09767    0.01028     3.10752
      C   12   -0.09577      0.99957     2.08719    0.00902     3.09577
      C   13   -0.09846      0.99951     2.08843    0.01051     3.09846
      C   14    0.27672      0.99962     1.70135    0.02231     2.72328
      O   15   -0.23705      0.99988     3.23018    0.00699     4.23705
      C   16    0.01523      0.99968     1.96705    0.01804     2.98477
      N   17   -0.23672      0.99974     2.72490    0.01208     3.73672
      H   18    0.09361      0.00000     0.40509    0.00130     0.40639
      H   19    0.09311      0.00000     0.40583    0.00106     0.40689
      H   20    0.08371      0.00000     0.41478    0.00152     0.41629
      H   21    0.08752      0.00000     0.41137    0.00111     0.41248
      H   22    0.09275      0.00000     0.40545    0.00180     0.40725
      H   23    0.09828      0.00000     0.40060    0.00112     0.40172
      H   24    0.10139      0.00000     0.39761    0.00100     0.39861
      H   25    0.09686      0.00000     0.40211    0.00104     0.40314
      H   26    0.09412      0.00000     0.40489    0.00099     0.40588
      H   27    0.09789      0.00000     0.40024    0.00186     0.40211
      H   28    0.09972      0.00000     0.39931    0.00097     0.40028
      H   29    0.09944      0.00000     0.39985    0.00071     0.40056
      H   30    0.10180      0.00000     0.39731    0.00089     0.39820
      H   31    0.10573      0.00000     0.39275    0.00152     0.39427
      H   32    0.06912      0.00000     0.42831    0.00256     0.43088
      H   33    0.16159      0.00000     0.33591    0.00249     0.33841
 =======================================================================
   * Total *   -0.00000     16.99364    44.78103    0.22533    62.00000

 Normal termination of Gaussian 16 at Sun Dec 13 22:28:04 2020.
