 Gaussian 16, Revision A.03,

 -----------------------------------------------------------
 # opt freq B3LYP/6-31G(d) empiricaldispersion=gd3bj scf=xqc
 -----------------------------------------------------------

 -------------------------------
 CID_138678289_JID_4872_neutraal
 -------------------------------
 Symbolic Z-matrix:
 Charge =  0 Multiplicity = 1

 SCF Done:  E(RB3LYP) =  -627.223445730     A.U. after   15 cycles
 SCF Done:  E(RB3LYP) =  -627.227447566     A.U. after   12 cycles
 SCF Done:  E(RB3LYP) =  -627.228123529     A.U. after   11 cycles
 SCF Done:  E(RB3LYP) =  -627.228277336     A.U. after   11 cycles
 SCF Done:  E(RB3LYP) =  -627.228359860     A.U. after   11 cycles
 SCF Done:  E(RB3LYP) =  -627.228420666     A.U. after   11 cycles
 SCF Done:  E(RB3LYP) =  -627.228518751     A.U. after   11 cycles
 SCF Done:  E(RB3LYP) =  -627.228623412     A.U. after   11 cycles
 SCF Done:  E(RB3LYP) =  -627.228805690     A.U. after   11 cycles
 SCF Done:  E(RB3LYP) =  -627.228871119     A.U. after   11 cycles
 SCF Done:  E(RB3LYP) =  -627.229015024     A.U. after    8 cycles
 SCF Done:  E(RB3LYP) =  -627.229015380     A.U. after    8 cycles
 SCF Done:  E(RB3LYP) =  -627.229015507     A.U. after    8 cycles
 SCF Done:  E(RB3LYP) =  -627.229015536     A.U. after    7 cycles
 SCF Done:  E(RB3LYP) =  -627.229015550     A.U. after    7 cycles
 Optimization completed.
    -- Stationary point found.
 Normal termination of Gaussian 16 at Thu Dec 10 10:45:38 2020.

 --------------------------------------------------------------------
 #N Geom=AllCheck Guess=TCheck SCRF=Check GenChk RB3LYP/6-31G(d) Freq
 --------------------------------------------------------------------

 Structure from the checkpoint file:  "JID_4872.chk"
 -------------------------------
 CID_138678289_JID_4872_neutraal
 -------------------------------
 Charge =  0 Multiplicity = 1

 SCF Done:  E(RB3LYP) =  -627.229015550     A.U. after    1 cycles

  Exact polarizability: 209.644   4.258 128.397  -0.000   0.001  56.109
 Approx polarizability: 307.326  18.526 220.570  -0.001   0.000  85.923

                      1                      2                      3
                      A                      A                      A
 Frequencies --     38.6357                70.8567                81.6386
 Red. masses --      3.8763                 4.9046                 1.1634
 Frc consts  --      0.0034                 0.0145                 0.0046
 IR Inten    --      2.2408                 0.4835                 0.0576

                      4                      5                      6
                      A                      A                      A
 Frequencies --    102.0653               140.1663               143.9320
 Red. masses --      4.2238                 4.1315                 1.0700
 Frc consts  --      0.0259                 0.0478                 0.0131
 IR Inten    --      1.4505                10.9446                 0.0952

                      7                      8                      9
                      A                      A                      A
 Frequencies --    193.4312               260.7602               276.3556
 Red. masses --      2.8146                 4.1727                 3.0751
 Frc consts  --      0.0620                 0.1672                 0.1384
 IR Inten    --      0.6452                 0.3658                 1.2073

                     10                     11                     12
                      A                      A                      A
 Frequencies --    292.3616               326.7683               369.8987
 Red. masses --      5.6357                 4.7570                 5.1068
 Frc consts  --      0.2838                 0.2993                 0.4117
 IR Inten    --      0.8393                 6.8050                 3.0369

                     13                     14                     15
                      A                      A                      A
 Frequencies --    414.3649               431.1466               519.2900
 Red. masses --      3.6731                 4.4139                 4.6494
 Frc consts  --      0.3716                 0.4834                 0.7387
 IR Inten    --      0.0207                13.5795                 1.5896

                     16                     17                     18
                      A                      A                      A
 Frequencies --    565.2505               578.0178               626.2415
 Red. masses --      2.7409                 4.6869                 2.9312
 Frc consts  --      0.5160                 0.9226                 0.6773
 IR Inten    --     17.0224                 6.4949                 7.2574

                     19                     20                     21
                      A                      A                      A
 Frequencies --    634.4256               686.9868               710.1651
 Red. masses --      7.1057                 1.3233                 1.4506
 Frc consts  --      1.6851                 0.3680                 0.4310
 IR Inten    --      8.4039                 4.7249                60.7788

                     22                     23                     24
                      A                      A                      A
 Frequencies --    712.0017               743.3493               772.9902
 Red. masses --      4.7262                 4.1280                 5.6747
 Frc consts  --      1.4116                 1.3439                 1.9977
 IR Inten    --     12.4429                 0.0049                36.7818

                     25                     26                     27
                      A                      A                      A
 Frequencies --    775.7371               807.7356               906.4993
 Red. masses --      4.7639                 1.3662                 1.4179
 Frc consts  --      1.6891                 0.5252                 0.6865
 IR Inten    --      1.9992                22.5859                 6.7809

                     28                     29                     30
                      A                      A                      A
 Frequencies --    917.5978               921.2888               991.9454
 Red. masses --      6.7017                 1.4026                 4.6829
 Frc consts  --      3.3246                 0.7014                 2.7148
 IR Inten    --     16.6557                 8.6375                17.4225

                     31                     32                     33
                      A                      A                      A
 Frequencies --   1025.6489              1071.8849              1078.9084
 Red. masses --      1.7394                 3.9459                 1.4854
 Frc consts  --      1.0781                 2.6711                 1.0187
 IR Inten    --     15.3785                13.8387                 2.9539

                     34                     35                     36
                      A                      A                      A
 Frequencies --   1088.9419              1104.1638              1137.1995
 Red. masses --      1.5111                 1.9338                 2.6114
 Frc consts  --      1.0557                 1.3891                 1.9897
 IR Inten    --      2.3261                 0.7222                 8.2415

                     37                     38                     39
                      A                      A                      A
 Frequencies --   1159.8627              1220.4882              1233.5151
 Red. masses --      1.3021                 1.6165                 1.9999
 Frc consts  --      1.0321                 1.4187                 1.7929
 IR Inten    --      0.0495                90.4755                 2.2035

                     40                     41                     42
                      A                      A                      A
 Frequencies --   1258.5660              1269.0039              1323.5632
 Red. masses --      1.5745                 2.3604                 4.2878
 Frc consts  --      1.4694                 2.2396                 4.4257
 IR Inten    --      8.6210                54.5345                27.2193

                     43                     44                     45
                      A                      A                      A
 Frequencies --   1365.7544              1402.2475              1431.3077
 Red. masses --      2.0029                 3.9831                 3.5213
 Frc consts  --      2.2012                 4.6144                 4.2503
 IR Inten    --     21.2375                 7.7213                10.6134

                     46                     47                     48
                      A                      A                      A
 Frequencies --   1444.3164              1461.2979              1479.9817
 Red. masses --      1.3284                 2.5978                 1.4930
 Frc consts  --      1.6327                 3.2684                 1.9267
 IR Inten    --      3.8858                32.0816                13.8860

                     49                     50                     51
                      A                      A                      A
 Frequencies --   1493.3322              1499.0870              1510.7882
 Red. masses --      2.3074                 1.0444                 1.0414
 Frc consts  --      3.0317                 1.3829                 1.4005
 IR Inten    --     10.7265                 4.8928                 7.6381

                     52                     53                     54
                      A                      A                      A
 Frequencies --   1521.8449              1545.4838              1548.9619
 Red. masses --      1.1880                 1.1213                 3.6874
 Frc consts  --      1.6211                 1.5780                 5.2126
 IR Inten    --      2.5750                 6.9715                72.0942

                     55                     56                     57
                      A                      A                      A
 Frequencies --   1596.1851              1627.9121              1701.1294
 Red. masses --      4.3993                 6.1809                 5.7474
 Frc consts  --      6.6039                 9.6508                 9.7994
 IR Inten    --     43.0929                12.2809                29.7229

                     58                     59                     60
                      A                      A                      A
 Frequencies --   1772.2300              3050.4949              3060.9552
 Red. masses --      8.2162                 1.0354                 1.0336
 Frc consts  --     15.2041                 5.6767                 5.7057
 IR Inten    --    648.4190                25.9161                68.4572

                     61                     62                     63
                      A                      A                      A
 Frequencies --   3104.1359              3122.5602              3132.1135
 Red. masses --      1.1000                 1.1063                 1.1037
 Frc consts  --      6.2446                 6.3552                 6.3792
 IR Inten    --     13.3566                19.4047                14.9231

                     64                     65                     66
                      A                      A                      A
 Frequencies --   3157.6180              3174.8784              3252.3335
 Red. masses --      1.1028                 1.0894                 1.0931
 Frc consts  --      6.4784                 6.4698                 6.8126
 IR Inten    --      8.8418                15.8461                 0.6291

                     67                     68                     69
                      A                      A                      A
 Frequencies --   3258.2187              3285.6976              3598.9987
 Red. masses --      1.0963                 1.0975                 1.0776
 Frc consts  --      6.8571                 6.9806                 8.2235
 IR Inten    --      5.3937                 2.5578                54.7147

 - Thermochemistry -
 -------------------
 Temperature   298.150 Kelvin.  Pressure   1.00000 Atm.
 Atom     1 has atomic number  6 and mass  12.00000

 Molecular mass:   189.09021 amu.
 Principal axes and moments of inertia in atomic units:
                           1         2         3
     Eigenvalues --   904.219665387.303666269.03659
           X            1.00000  -0.00223   0.00000
           Y            0.00223   1.00000   0.00000
           Z           -0.00000  -0.00000   1.00000
 This molecule is an asymmetric top.
 Rotational symmetry number  1.
 Warning -- assumption of classical behavior for rotation
           may cause significant error
 Rotational temperatures (Kelvin)      0.09579     0.01608     0.01382
 Rotational constants (GHZ):           1.99591     0.33500     0.28788
 Zero-point vibrational energy     529847.1 (Joules/Mol)
                                  126.63649 (Kcal/Mol)
 Warning -- explicit consideration of  17 degrees of freedom as
           vibrations may cause significant error
 Vibrational temperatures:     55.59   101.95   117.46   146.85   201.67
          (Kelvin)            207.09   278.30   375.18   397.61   420.64
                              470.15   532.20   596.18   620.32   747.14
                              813.27   831.64   901.02   912.80   988.42
                             1021.77  1024.41  1069.51  1112.16  1116.11
                             1162.15  1304.25  1320.22  1325.53  1427.19
                             1475.68  1542.20  1552.31  1566.74  1588.65
                             1636.18  1668.78  1756.01  1774.75  1810.80
                             1825.81  1904.31  1965.02  2017.52  2059.33
                             2078.05  2102.48  2129.36  2148.57  2156.85
                             2173.69  2189.60  2223.61  2228.61  2296.55
                             2342.20  2447.55  2549.84  4388.98  4404.03
                             4466.16  4492.67  4506.41  4543.11  4567.94
                             4679.38  4687.85  4727.39  5178.16

 Zero-point correction=                           0.201808 (Hartree/Particle)
 Thermal correction to Energy=                    0.214378
 Thermal correction to Enthalpy=                  0.215322
 Thermal correction to Gibbs Free Energy=         0.162011
 Sum of electronic and zero-point Energies=           -627.027207
 Sum of electronic and thermal Energies=              -627.014638
 Sum of electronic and thermal Enthalpies=            -627.013693
 Sum of electronic and thermal Free Energies=         -627.067005

                     E (Thermal)             CV                S
                      KCal/Mol        Cal/Mol-Kelvin    Cal/Mol-Kelvin
 Total                  134.524             47.049            112.203
 Electronic               0.000              0.000              0.000
 Translational            0.889              2.981             41.617
 Rotational               0.889              2.981             31.791
 Vibrational            132.747             41.087             38.796
 Vibration     1          0.594              1.981              5.328
 Vibration     2          0.598              1.968              4.129
 Vibration     3          0.600              1.962              3.851
 Vibration     4          0.604              1.948              3.414
 Vibration     5          0.615              1.913              2.802
 Vibration     6          0.616              1.909              2.751
 Vibration     7          0.635              1.849              2.195
 Vibration     8          0.669              1.745              1.657
 Vibration     9          0.678              1.717              1.556
 Vibration    10          0.688              1.688              1.460
 Vibration    11          0.710              1.622              1.276
 Vibration    12          0.742              1.534              1.080
 Vibration    13          0.778              1.439              0.911
 Vibration    14          0.792              1.402              0.855
 Vibration    15          0.874              1.207              0.612
 Vibration    16          0.921              1.106              0.513
 Vibration    17          0.935              1.079              0.489

 Optimization completed.
    -- Stationary point found.
 Normal termination of Gaussian 16 at Thu Dec 10 10:51:29 2020.

 ----------------------------------------------------------------------
 # B3LYP/6-311++G(d,p) empiricaldispersion=gd3bj scf=xqc pop=npa geom=c
 heck
 ----------------------------------------------------------------------

 ---------------------------------------
 CID_138678289_JID_4872_Energie_neutraal
 ---------------------------------------
 Structure from the checkpoint file:  "JID_4872.chk"
 Charge =  0 Multiplicity = 1

 SCF Done:  E(RB3LYP) =  -627.400609376     A.U. after   16 cycles
 Normal termination of Gaussian 16 at Thu Dec 10 10:53:58 2020.

 ----------------------------------------------------------------------
 # B3LYP/6-311++G(d,p) empiricaldispersion=gd3bj scf=xqc pop=npa geom=c
 heck
 ----------------------------------------------------------------------

 -------------------------------------
 CID_138678289_JID_4872_Energie_kation
 -------------------------------------
 Structure from the checkpoint file:  "JID_4872.chk"
 Charge =  1 Multiplicity = 2

 SCF Done:  E(UB3LYP) =  -627.137182177     A.U. after   22 cycles
 Normal termination of Gaussian 16 at Thu Dec 10 10:58:14 2020.
 Gaussian 16:  ES64L-G16RevA.03 25-Dec-2016

 ----------------------------------------------------------------------
 # B3LYP/6-311++G(d,p) empiricaldispersion=gd3bj scf=xqc pop=npa geom=c
 heck
 ----------------------------------------------------------------------

 ------------------------------------
 CID_138678289_JID_4872_Energie_anion
 ------------------------------------
 Structure from the checkpoint file:  "JID_4872.chk"
 Charge = -1 Multiplicity = 2

                         Standard orientation:
 ---------------------------------------------------------------------
 Center     Atomic      Atomic             Coordinates (Angstroms)
 Number     Number       Type             X           Y           Z
 ---------------------------------------------------------------------
      1          6           0       -3.197762    2.119444   -0.000084
      2          6           0       -2.342762    0.887425   -0.000020
      3          6           0       -0.977132    0.907988   -0.000025
      4          6           0       -0.181048   -0.283042    0.000019
      5          6           0       -0.847587   -1.478742    0.000058
      6          7           0       -2.210610   -1.506783    0.000057
      7          6           0       -3.054472   -0.386617    0.000009
      8          8           0       -4.277192   -0.527525    0.000031
      9          6           0        1.279641   -0.253212    0.000029
     10          6           0        2.131083    0.833538    0.000088
     11          7           0        3.412086    0.313800   -0.000004
     12          6           0        3.279647   -1.046224   -0.000066
     13          7           0        2.020906   -1.423902   -0.000148
     14          6           0        4.649753    1.069939    0.000031
     15          1           0       -2.587886    3.027851    0.000126
     16          1           0       -3.856489    2.133239   -0.876227
     17          1           0       -3.856863    2.133059    0.875775
     18          1           0       -0.471515    1.871351   -0.000081
     19          1           0       -0.326759   -2.427969    0.000089
     20          1           0       -2.699948   -2.393901    0.000075
     21          1           0        1.958814    1.898911    0.000491
     22          1           0        4.140253   -1.702362   -0.000204
     23          1           0        4.717970    1.701795   -0.891428
     24          1           0        4.717832    1.701923    0.891413
     25          1           0        5.489290    0.371523    0.000150
 ---------------------------------------------------------------------

 SCF Done:  E(UB3LYP) =  -627.396644520     A.U. after   33 cycles
 SCF Done:  E(UB3LYP) =  -627.396644520     a.u. after    2 cycles

 The electronic state is 2-A.
 Alpha  occ. eigenvalues --  -18.97085 -14.27162 -14.25367 -14.19196 -10.15515
 Alpha  occ. eigenvalues --  -10.12243 -10.11122 -10.10261 -10.09411 -10.09336
 Alpha  occ. eigenvalues --  -10.07339 -10.06987 -10.06655 -10.06557  -0.92563
 Alpha  occ. eigenvalues --   -0.91898  -0.84386  -0.78955  -0.71804  -0.67629
 Alpha  occ. eigenvalues --   -0.64565  -0.60961  -0.59505  -0.53788  -0.52830
 Alpha  occ. eigenvalues --   -0.48171  -0.47389  -0.44322  -0.41018  -0.39958
 Alpha  occ. eigenvalues --   -0.37240  -0.36680  -0.34885  -0.33916  -0.33221
 Alpha  occ. eigenvalues --   -0.32420  -0.31365  -0.30534  -0.30432  -0.29749
 Alpha  occ. eigenvalues --   -0.29612  -0.26767  -0.25719  -0.23948  -0.19819
 Alpha  occ. eigenvalues --   -0.17817  -0.17180  -0.15058  -0.14223  -0.09206
 Alpha  occ. eigenvalues --    0.04006
 Alpha virt. eigenvalues --    0.05425   0.07466   0.07815   0.08239   0.08395
 Alpha virt. eigenvalues --    0.09491   0.09746   0.11130   0.11837   0.11988
 Alpha virt. eigenvalues --    0.12120   0.12647   0.13664   0.13965   0.14392

  Beta  occ. eigenvalues --  -18.97061 -14.27161 -14.25236 -14.19202 -10.15494
  Beta  occ. eigenvalues --  -10.12213 -10.11042 -10.10094 -10.09413 -10.09327
  Beta  occ. eigenvalues --  -10.07401 -10.06832 -10.06573 -10.06537  -0.92467
  Beta  occ. eigenvalues --   -0.91890  -0.84170  -0.78942  -0.71591  -0.67506
  Beta  occ. eigenvalues --   -0.64494  -0.60855  -0.59334  -0.53541  -0.52747
  Beta  occ. eigenvalues --   -0.48116  -0.47309  -0.44217  -0.40901  -0.39856
  Beta  occ. eigenvalues --   -0.37196  -0.36532  -0.34840  -0.33498  -0.33161
  Beta  occ. eigenvalues --   -0.32350  -0.31317  -0.30468  -0.30308  -0.29581
  Beta  occ. eigenvalues --   -0.29565  -0.26713  -0.25638  -0.23613  -0.19251
  Beta  occ. eigenvalues --   -0.17816  -0.17016  -0.14994  -0.13918  -0.08745
  Beta virt. eigenvalues --    0.06900   0.07372   0.07729   0.07943   0.08703
  Beta virt. eigenvalues --    0.09004   0.09862   0.10301   0.11580   0.11793
  Beta virt. eigenvalues --    0.12039   0.12697   0.12856   0.13814   0.14284

 Mulliken charges and spin densities:
               1          2
     1  C   -0.505228  -0.029585
     2  C    0.443889  -0.090338
     3  C   -0.186864  -0.125001
     4  C    0.372384  -0.141356
     5  C   -0.349184   0.344913
     6  N   -0.185665   0.042558
     7  C   -0.634149   0.011858
     8  O   -0.410433   0.011445
     9  C   -0.345927  -0.605500
    10  C    0.536447   0.034989
    11  N   -0.354985   0.328673
    12  C    0.166038   0.213116
    13  N   -0.134749   0.046086
    14  C    1.991829  -2.295710
    15  H    0.114048   0.019911
    16  H    0.153169   0.001356
    17  H    0.137841   0.018713
    18  H   -0.004054   0.027459
    19  H    0.193548   0.002101
    20  H    0.294711   0.002887
    21  H   -0.090750   0.294171
    22  H   -0.260086   0.446951
    23  H   -0.489713   0.658521
    24  H   -0.593160   0.770632
    25  H   -0.858957   1.011148
 Sum of Mulliken charges =  -1.00000   1.00000

 Dipole moment (field-independent basis, Debye):
    X=             -6.6790    Y=             -2.0243    Z=             -0.7909  Tot=              7.0237
 Quadrupole moment (field-independent basis, Debye-Ang):
   XX=           -207.6154   YY=           -104.1701   ZZ=           -102.7068
   XY=            -12.4602   XZ=             -2.8284   YZ=             -1.5798

 Summary of Natural Population Analysis:

                                       Natural Population
                Natural  -----------------------------------------------
    Atom  No    Charge         Core      Valence    Rydberg      Total
 -----------------------------------------------------------------------
      C    1   -0.29071      0.99965     2.28592    0.00514     3.29071
      C    2   -0.04370      0.99949     2.03607    0.00815     3.04370
      C    3   -0.04351      0.99950     2.03526    0.00875     3.04351
      C    4   -0.08692      0.99949     2.07894    0.00850     3.08692
      C    5    0.06684      0.99954     1.92324    0.01038     2.93316
      N    6   -0.26262      0.99966     2.75567    0.00729     3.76262
      C    7    0.31037      0.99959     1.66726    0.02278     2.68963
      O    8   -0.34475      0.99988     3.33872    0.00614     4.34475
      C    9    0.05350      0.99952     1.93251    0.01446     2.94650
      C   10   -0.03722      0.99950     2.02601    0.01171     3.03722
      N   11   -0.20391      0.99966     2.69382    0.01043     3.70391
      C   12    0.11528      0.99962     1.86700    0.01810     2.88472
      N   13   -0.26391      0.99971     2.75508    0.00912     3.76391
      C   14   -0.17188      0.99964     2.16419    0.00805     3.17188
      H   15    0.09542      0.00000     0.40374    0.00085     0.40458
      H   16    0.10446      0.00000     0.39439    0.00115     0.39554
      H   17    0.10437      0.00000     0.39402    0.00161     0.39563
      H   18    0.09391      0.00000     0.40466    0.00143     0.40609
      H   19    0.10530      0.00000     0.39350    0.00120     0.39470
      H   20    0.19345      0.00000     0.30424    0.00231     0.30655
      H   21    0.10464      0.00000     0.39434    0.00102     0.39536
      H   22    0.09287      0.00000     0.40576    0.00137     0.40713
      H   23    0.09993      0.00000     0.39785    0.00222     0.40007
      H   24    0.10282      0.00000     0.39321    0.00397     0.39718
      H   25    0.10596      0.00000     0.38971    0.00433     0.39404
 =======================================================================
   * Total *    0.00000     13.99446    35.83509    0.17045    50.00000

 Normal termination of Gaussian 16 at Thu Dec 10 11:11:08 2020.
