 Gaussian 16, Revision A.03,

 -----------------------------------------------------------
 # opt freq B3LYP/6-31G(d) empiricaldispersion=gd3bj scf=xqc
 -----------------------------------------------------------

 -----------------------------
 CID_53755389_JID_157_neutraal
 -----------------------------
 Symbolic Z-matrix:
 Charge =  0 Multiplicity = 1

 SCF Done:  E(RB3LYP) =  -752.050778966     A.U. after   13 cycles
 SCF Done:  E(RB3LYP) =  -752.052121204     A.U. after   10 cycles
 SCF Done:  E(RB3LYP) =  -752.052045385     A.U. after   10 cycles
 SCF Done:  E(RB3LYP) =  -752.052562716     A.U. after   10 cycles
 SCF Done:  E(RB3LYP) =  -752.052554279     A.U. after   11 cycles
 SCF Done:  E(RB3LYP) =  -752.052728087     A.U. after   10 cycles
 SCF Done:  E(RB3LYP) =  -752.052762725     A.U. after   10 cycles
 SCF Done:  E(RB3LYP) =  -752.052769220     A.U. after    9 cycles
 SCF Done:  E(RB3LYP) =  -752.052769445     A.U. after    6 cycles
 SCF Done:  E(RB3LYP) =  -752.052769590     A.U. after    7 cycles
 SCF Done:  E(RB3LYP) =  -752.052769577     A.U. after    6 cycles
 Optimization completed.
    -- Stationary point found.

 1\1\GINC-NODE205\FOpt\RB3LYP\6-31G(d)\C9H18S1\VSC10255\08-Dec-2020\0\\
 # opt freq B3LYP/6-31G(d) empiricaldispersion=gd3bj scf=xqc\\CID_53755
 389_JID_157_neutraal\\0,1\C,0.9677087231,0.1367964347,-0.3540207416\C,
 0.1135562425,-0.9479884141,-1.0232771634\C,0.403537463,-2.3129058237,-
 0.3816005736\C,-1.4039551259,-0.6791558163,-0.9723743545\C,-1.97733907
 87,0.5768902254,-1.6720092051\C,-1.3874024927,0.7934362812,-3.07573910
 33\C,-2.0887948066,1.903970627,-3.8694017266\C,-2.0091674125,3.2649415
 611,-3.176736104\S,-2.8073725392,3.2599389973,-1.5253973138\C,-1.87752

 Normal termination of Gaussian 16 at Tue Dec  8 10:19:39 2020.

 --------------------------------------------------------------------
 #N Geom=AllCheck Guess=TCheck SCRF=Check GenChk RB3LYP/6-31G(d) Freq
 --------------------------------------------------------------------

 Structure from the checkpoint file:  "JID_157.chk"
 -----------------------------
 CID_53755389_JID_157_neutraal
 -----------------------------
 Charge =  0 Multiplicity = 1

 SCF Done:  E(RB3LYP) =  -752.052769577     A.U. after    1 cycles

  Exact polarizability: 129.957  -0.991 103.637  -1.788   2.825  93.940
 Approx polarizability: 160.637  -1.961 154.559  -1.036   7.067 144.834

                      1                      2                      3
                      A                      A                      A
 Frequencies --     62.7813                95.2532               101.2161
 Red. masses --      2.6657                 3.0202                 3.0929
 Frc consts  --      0.0062                 0.0161                 0.0187
 IR Inten    --      0.0988                 0.1914                 0.4143

                      4                      5                      6
                      A                      A                      A
 Frequencies --    179.0662               202.6434               240.2837
 Red. masses --      2.3474                 2.4346                 1.1329
 Frc consts  --      0.0443                 0.0589                 0.0385
 IR Inten    --      1.4004                 0.4152                 0.0157

                      7                      8                      9
                      A                      A                      A
 Frequencies --    272.3567               273.3057               298.2235
 Red. masses --      3.0769                 1.3025                 1.8228
 Frc consts  --      0.1345                 0.0573                 0.0955
 IR Inten    --      0.0768                 0.2765                 0.4101

                     10                     11                     12
                      A                      A                      A
 Frequencies --    320.7270               357.6067               382.5156
 Red. masses --      2.0516                 5.9365                 1.9164
 Frc consts  --      0.1243                 0.4473                 0.1652
 IR Inten    --      0.0795                 0.4315                 0.0840

                     13                     14                     15
                      A                      A                      A
 Frequencies --    405.7609               424.4737               479.4526
 Red. masses --      2.3488                 1.9446                 1.7801
 Frc consts  --      0.2278                 0.2064                 0.2411
 IR Inten    --      0.1158                 0.1263                 0.4521

                     16                     17                     18
                      A                      A                      A
 Frequencies --    613.5260               668.9311               752.8954
 Red. masses --      3.9534                 3.7360                 3.4953
 Frc consts  --      0.8768                 0.9850                 1.1674
 IR Inten    --      0.9348                 2.6934                 3.7638

                     19                     20                     21
                      A                      A                      A
 Frequencies --    773.9399               816.5666               847.3094
 Red. masses --      2.8287                 1.9099                 1.4470
 Frc consts  --      0.9983                 0.7503                 0.6121
 IR Inten    --      3.2394                 0.1201                 4.3895

                     22                     23                     24
                      A                      A                      A
 Frequencies --    878.2920               887.8202               922.5528
 Red. masses --      2.0364                 1.5828                 2.2196
 Frc consts  --      0.9255                 0.7351                 1.1130
 IR Inten    --      1.4295                 1.4277                 0.8951

                     25                     26                     27
                      A                      A                      A
 Frequencies --    942.4026               958.6921               962.8893
 Red. masses --      1.2275                 2.0724                 1.8400
 Frc consts  --      0.6423                 1.1222                 1.0051
 IR Inten    --      1.4878                 4.4142                 0.8523

                     28                     29                     30
                      A                      A                      A
 Frequencies --    981.6311              1047.0579              1057.1140
 Red. masses --      1.5006                 1.7130                 1.8638
 Frc consts  --      0.8519                 1.1065                 1.2271
 IR Inten    --      0.1893                 0.8185                 0.0986

                     31                     32                     33
                      A                      A                      A
 Frequencies --   1083.1395              1116.6721              1120.4693
 Red. masses --      2.0403                 2.0862                 1.0675
 Frc consts  --      1.4103                 1.5327                 0.7896
 IR Inten    --      2.0409                 3.2997                 0.3635

                     34                     35                     36
                      A                      A                      A
 Frequencies --   1143.3164              1172.6364              1205.2157
 Red. masses --      1.9227                 1.6793                 1.7557
 Frc consts  --      1.4808                 1.3605                 1.5026
 IR Inten    --      0.8020                 1.9755                 4.7279

                     37                     38                     39
                      A                      A                      A
 Frequencies --   1231.3935              1254.1569              1284.4397
 Red. masses --      1.5002                 1.3098                 1.2060
 Frc consts  --      1.3403                 1.2138                 1.1722
 IR Inten    --      2.5117                 4.7248                 6.8119

                     40                     41                     42
                      A                      A                      A
 Frequencies --   1297.8179              1310.3545              1339.3969
 Red. masses --      1.2643                 1.3094                 1.2421
 Frc consts  --      1.2546                 1.3246                 1.3128
 IR Inten    --      0.8006                 2.1378                 4.8542

                     43                     44                     45
                      A                      A                      A
 Frequencies --   1344.0527              1353.9147              1392.4249
 Red. masses --      1.2974                 1.2365                 1.3569
 Frc consts  --      1.3809                 1.3354                 1.5501
 IR Inten    --      8.6884                 4.1955                 1.8410

                     46                     47                     48
                      A                      A                      A
 Frequencies --   1398.9394              1405.4113              1412.7146
 Red. masses --      1.4219                 1.4484                 1.3361
 Frc consts  --      1.6395                 1.6855                 1.5711
 IR Inten    --      2.4271                 0.6362                 0.8698

                     49                     50                     51
                      A                      A                      A
 Frequencies --   1426.1708              1431.2562              1451.7855
 Red. masses --      1.4452                 1.2814                 1.2387
 Frc consts  --      1.7319                 1.5466                 1.5382
 IR Inten    --      0.1832                 4.3169                 5.8454

                     52                     53                     54
                      A                      A                      A
 Frequencies --   1495.5410              1498.5582              1507.3510
 Red. masses --      1.0924                 1.0874                 1.0801
 Frc consts  --      1.4395                 1.4387                 1.4459
 IR Inten    --      0.9702                 5.8761                 1.5631

                     55                     56                     57
                      A                      A                      A
 Frequencies --   1511.0263              1520.9347              1523.0393
 Red. masses --      1.0915                 1.0468                 1.0830
 Frc consts  --      1.4684                 1.4267                 1.4801
 IR Inten    --      4.1224                 1.9631                 1.6709

                     58                     59                     60
                      A                      A                      A
 Frequencies --   1527.3438              1536.6264              1543.8648
 Red. masses --      1.0636                 1.0598                 1.0468
 Frc consts  --      1.4618                 1.4744                 1.4701
 IR Inten    --      4.9602                 2.0466                13.8042

                     61                     62                     63
                      A                      A                      A
 Frequencies --   3009.9791              3024.2400              3025.1248
 Red. masses --      1.0652                 1.0823                 1.0700
 Frc consts  --      5.6862                 5.8319                 5.7693
 IR Inten    --     11.3685                10.6332                28.5845

                     64                     65                     66
                      A                      A                      A
 Frequencies --   3032.1210              3036.7863              3037.7519
 Red. masses --      1.0688                 1.0575                 1.0425
 Frc consts  --      5.7896                 5.7457                 5.6682
 IR Inten    --     28.6615                38.2123                36.8462

                     67                     68                     69
                      A                      A                      A
 Frequencies --   3045.0803              3048.1507              3053.5541
 Red. masses --      1.0393                 1.0667                 1.1004
 Frc consts  --      5.6779                 5.8391                 6.0452
 IR Inten    --     20.1271                22.9090                25.9960

                     70                     71                     72
                      A                      A                      A
 Frequencies --   3068.0595              3077.4821              3084.4230
 Red. masses --      1.1003                 1.0598                 1.0994
 Frc consts  --      6.1023                 5.9136                 6.1627
 IR Inten    --     34.6582                35.0753                52.3914

                     73                     74                     75
                      A                      A                      A
 Frequencies --   3100.1463              3106.1095              3112.1018
 Red. masses --      1.1017                 1.1012                 1.1023
 Frc consts  --      6.2385                 6.2594                 6.2902
 IR Inten    --      5.1236                68.3102                48.6906

                     76                     77                     78
                      A                      A                      A
 Frequencies --   3115.8703              3121.0119              3134.2932
 Red. masses --      1.1008                 1.1035                 1.1004
 Frc consts  --      6.2970                 6.3329                 6.3694
 IR Inten    --     25.4358                29.7896                28.6069

 - Thermochemistry -
 -------------------
 Temperature   298.150 Kelvin.  Pressure   1.00000 Atm.
 Atom     1 has atomic number  6 and mass  12.00000

 Molecular mass:   158.11292 amu.
 Principal axes and moments of inertia in atomic units:
                           1         2         3
     Eigenvalues --   816.042263123.207293380.11746
           X            0.99977  -0.02116  -0.00375
           Y            0.02106   0.99947  -0.02467
           Z            0.00427   0.02458   0.99969
 This molecule is an asymmetric top.
 Rotational symmetry number  1.
 Warning -- assumption of classical behavior for rotation
           may cause significant error
 Rotational temperatures (Kelvin)      0.10614     0.02773     0.02562
 Rotational constants (GHZ):           2.21158     0.57785     0.53393
 Zero-point vibrational energy     677562.1 (Joules/Mol)
                                  161.94123 (Kcal/Mol)
 Warning -- explicit consideration of  16 degrees of freedom as
           vibrations may cause significant error
 Vibrational temperatures:     90.33   137.05   145.63   257.64   291.56
          (Kelvin)            345.71   391.86   393.23   429.08   461.45
                              514.52   550.35   583.80   610.72   689.83
                              882.73   962.44  1083.25  1113.53  1174.86
                             1219.09  1263.67  1277.38  1327.35  1355.91
                             1379.34  1385.38  1412.35  1506.48  1520.95
                             1558.40  1606.64  1612.11  1644.98  1687.16
                             1734.04  1771.70  1804.45  1848.02  1867.27
                             1885.31  1927.09  1933.79  1947.98  2003.39
                             2012.76  2022.07  2032.58  2051.94  2059.26
                             2088.80  2151.75  2156.09  2168.74  2174.03
                             2188.29  2191.31  2197.51  2210.86  2221.28
                             4330.69  4351.21  4352.48  4362.55  4369.26
                             4370.65  4381.19  4385.61  4393.38  4414.25
                             4427.81  4437.80  4460.42  4469.00  4477.62
                             4483.04  4490.44  4509.55

 Zero-point correction=                           0.258070 (Hartree/Particle)
 Thermal correction to Energy=                    0.269378
 Thermal correction to Enthalpy=                  0.270322
 Thermal correction to Gibbs Free Energy=         0.221296
 Sum of electronic and zero-point Energies=           -751.794700
 Sum of electronic and thermal Energies=              -751.783392
 Sum of electronic and thermal Enthalpies=            -751.782448
 Sum of electronic and thermal Free Energies=         -751.831474

                     E (Thermal)             CV                S
                      KCal/Mol        Cal/Mol-Kelvin    Cal/Mol-Kelvin
 Total                  169.037             43.699            103.184
 Electronic               0.000              0.000              0.000
 Translational            0.889              2.981             41.084
 Rotational               0.889              2.981             30.533
 Vibrational            167.260             37.738             31.567
 Vibration     1          0.597              1.972              4.368
 Vibration     2          0.603              1.953              3.549
 Vibration     3          0.604              1.948              3.431
 Vibration     4          0.629              1.868              2.338
 Vibration     5          0.639              1.836              2.109
 Vibration     6          0.657              1.779              1.801
 Vibration     7          0.675              1.724              1.581
 Vibration     8          0.676              1.723              1.575
 Vibration     9          0.691              1.677              1.427
 Vibration    10          0.706              1.634              1.306
 Vibration    11          0.733              1.560              1.132
 Vibration    12          0.752              1.507              1.029
 Vibration    13          0.771              1.458              0.942
 Vibration    14          0.786              1.417              0.877
 Vibration    15          0.836              1.296              0.712
 Vibration    16          0.973              1.003              0.427

 Optimization completed.
    -- Stationary point found.

 1\1\GINC-NODE205\Freq\RB3LYP\6-31G(d)\C9H18S1\VSC10255\08-Dec-2020\0\\
 #N Geom=AllCheck Guess=TCheck SCRF=Check GenChk RB3LYP/6-31G(d) Freq\\
 CID_53755389_JID_157_neutraal\\0,1\C,0.9677087231,0.1367964347,-0.3540
 207416\C,0.1135562425,-0.9479884141,-1.0232771634\C,0.403537463,-2.312
 9058237,-0.3816005736\C,-1.4039551259,-0.6791558163,-0.9723743545\C,-1
 .9773390787,0.5768902254,-1.6720092051\C,-1.3874024927,0.7934362812,-3
 .0757391033\C,-2.0887948066,1.903970627,-3.8694017266\C,-2.0091674125,
 3.2649415611,-3.176736104\S,-2.8073725392,3.2599389973,-1.5253973138\C

 Normal termination of Gaussian 16 at Tue Dec  8 10:25:22 2020.

 ----------------------------------------------------------------------
 # B3LYP/6-311++G(d,p) empiricaldispersion=gd3bj scf=xqc pop=npa geom=c
 heck
 ----------------------------------------------------------------------

 -------------------------------------
 CID_53755389_JID_157_Energie_neutraal
 -------------------------------------
 Structure from the checkpoint file:  "JID_157.chk"
 Charge =  0 Multiplicity = 1

 SCF Done:  E(RB3LYP) =  -752.176515151     A.U. after   13 cycles
 Normal termination of Gaussian 16 at Tue Dec  8 10:27:52 2020.

 ----------------------------------------------------------------------
 # B3LYP/6-311++G(d,p) empiricaldispersion=gd3bj scf=xqc pop=npa geom=c
 heck
 ----------------------------------------------------------------------

 -----------------------------------
 CID_53755389_JID_157_Energie_kation
 -----------------------------------
 Structure from the checkpoint file:  "JID_157.chk"
 Charge =  1 Multiplicity = 2

 SCF Done:  E(UB3LYP) =  -751.875622466     A.U. after   17 cycles
 Normal termination of Gaussian 16 at Tue Dec  8 10:33:02 2020.
 Gaussian 16:  ES64L-G16RevA.03 25-Dec-2016

 ----------------------------------
 CID_53755389_JID_157_Energie_anion
 ----------------------------------
 Structure from the checkpoint file:  "JID_157.chk"
 Charge = -1 Multiplicity = 2

                         Standard orientation:
 ---------------------------------------------------------------------
 Center     Atomic      Atomic             Coordinates (Angstroms)
 Number     Number       Type             X           Y           Z
 ---------------------------------------------------------------------
      1          6           0        2.260914   -0.762764    1.369127
      2          6           0        2.454792    0.224986    0.211111
      3          6           0        3.906302    0.168775   -0.287684
      4          6           0        1.503024   -0.002713   -0.980523
      5          6           0       -0.024409    0.133957   -0.770330
      6          6           0       -0.399333    1.377076    0.053965
      7          6           0       -1.908972    1.649477    0.097840
      8          6           0       -2.699412    0.494832    0.714581
      9         16           0       -2.507800   -1.068261   -0.225684
     10          6           0       -0.673628   -1.138351   -0.204721
     11          1           0        2.310288   -1.799901    1.013816
     12          1           0        1.299998   -0.626495    1.873675
     13          1           0        3.046596   -0.632285    2.122569
     14          1           0        2.279233    1.238063    0.599077
     15          1           0        4.145316   -0.828816   -0.678378
     16          1           0        4.081942    0.892040   -1.092452
     17          1           0        4.611865    0.386409    0.522319
     18          1           0        1.784992    0.722160   -1.756736
     19          1           0        1.711089   -0.994458   -1.409583
     20          1           0       -0.457607    0.267605   -1.771620
     21          1           0       -0.029530    1.260752    1.082325
     22          1           0        0.115176    2.253093   -0.361875
     23          1           0       -2.098204    2.559426    0.683816
     24          1           0       -2.280615    1.836051   -0.917392
     25          1           0       -2.387373    0.326755    1.753081
     26          1           0       -3.772428    0.708863    0.722038
     27          1           0       -0.405123   -2.008356   -0.812652
     28          1           0       -0.346487   -1.340383    0.818718
 ---------------------------------------------------------------------

 SCF Done:  E(UB3LYP) =  -752.159783562     A.U. after   28 cycles

 The electronic state is 2-A.
 Alpha  occ. eigenvalues --  -88.73414 -10.09539 -10.09307 -10.07504 -10.06812
 Alpha  occ. eigenvalues --  -10.06811 -10.06179 -10.06146 -10.05222 -10.05102
 Alpha  occ. eigenvalues --   -7.82046  -5.78423  -5.78093  -5.77420  -0.74218
 Alpha  occ. eigenvalues --   -0.70270  -0.65855  -0.64965  -0.58370  -0.57340
 Alpha  occ. eigenvalues --   -0.52074  -0.50101  -0.46551  -0.44045  -0.37728
 Alpha  occ. eigenvalues --   -0.36114  -0.35733  -0.34358  -0.32231  -0.32109
 Alpha  occ. eigenvalues --   -0.30726  -0.30052  -0.28415  -0.27152  -0.26662
 Alpha  occ. eigenvalues --   -0.25544  -0.25402  -0.23968  -0.23290  -0.22049
 Alpha  occ. eigenvalues --   -0.20744  -0.20364  -0.19297  -0.12296   0.04752
 Alpha virt. eigenvalues --    0.06720   0.07729   0.07992   0.08678   0.09605
 Alpha virt. eigenvalues --    0.09715   0.10291   0.10818   0.11341   0.11680
 Alpha virt. eigenvalues --    0.12414   0.12687   0.13529   0.13780   0.14301

  Beta  occ. eigenvalues --  -88.73412 -10.09519 -10.09295 -10.07499 -10.06800
  Beta  occ. eigenvalues --  -10.06788 -10.06155 -10.06128 -10.05190 -10.05066
  Beta  occ. eigenvalues --   -7.82044  -5.78421  -5.78089  -5.77418  -0.74193
  Beta  occ. eigenvalues --   -0.70236  -0.65820  -0.64933  -0.58312  -0.57278
  Beta  occ. eigenvalues --   -0.52026  -0.50046  -0.46489  -0.43985  -0.37682
  Beta  occ. eigenvalues --   -0.36070  -0.35693  -0.34315  -0.32200  -0.32062
  Beta  occ. eigenvalues --   -0.30692  -0.30013  -0.28378  -0.27112  -0.26630
  Beta  occ. eigenvalues --   -0.25502  -0.25372  -0.23925  -0.23250  -0.22000
  Beta  occ. eigenvalues --   -0.20711  -0.20320  -0.19266  -0.12280
  Beta virt. eigenvalues --    0.07061   0.07586   0.08285   0.08560   0.09262
  Beta virt. eigenvalues --    0.10147   0.10363   0.10614   0.11170   0.11774
  Beta virt. eigenvalues --    0.12157   0.12771   0.12980   0.13880   0.14046

 Mulliken charges and spin densities:
               1          2
     1  C    1.180317  -1.849860
     2  C   -2.068695   2.594376
     3  C    0.926275  -1.549400
     4  C    1.602013  -2.314400
     5  C   -0.269931   1.043198
     6  C    0.051453  -0.692701
     7  C    0.157925  -0.553285
     8  C    0.517046  -0.993556
     9  S   -0.324941   0.285417
    10  C   -0.196106  -0.320646
    11  H   -0.168193   0.315521
    12  H   -0.123221   0.252960
    13  H   -0.352564   0.488723
    14  H   -0.245512   0.406174
    15  H   -0.044083   0.171659
    16  H   -0.418568   0.554741
    17  H   -0.324869   0.467263
    18  H    0.077239   0.074044
    19  H   -0.149909   0.281418
    20  H    0.005327   0.154855
    21  H   -0.106031   0.267670
    22  H   -0.344172   0.515108
    23  H   -0.617167   0.797002
    24  H    0.060419   0.055829
    25  H   -0.007150   0.173534
    26  H   -0.152286   0.372367
    27  H    0.137455   0.041581
    28  H    0.197928  -0.039592
 Sum of Mulliken charges =  -1.00000   1.00000

 Dipole moment (field-independent basis, Debye):
    X=             -3.5563    Y=             -3.5314    Z=             -2.2893  Tot=              5.5099
 Quadrupole moment (field-independent basis, Debye-Ang):
   XX=           -146.2680   YY=           -116.2034   ZZ=           -108.6168
   XY=             -0.0456   XZ=              0.0984   YZ=             -1.5086

 Summary of Natural Population Analysis:

                                       Natural Population
                Natural  -----------------------------------------------
    Atom  No    Charge         Core      Valence    Rydberg      Total
 -----------------------------------------------------------------------
      C    1   -0.28587      0.99965     2.27950    0.00672     3.28587
      C    2   -0.11744      0.99961     2.10824    0.00960     3.11744
      C    3   -0.28102      0.99965     2.27511    0.00626     3.28102
      C    4   -0.18250      0.99959     2.17208    0.01083     3.18250
      C    5   -0.11685      0.99957     2.10538    0.01190     3.11685
      C    6   -0.19310      0.99960     2.18256    0.01094     3.19310
      C    7   -0.19362      0.99962     2.18350    0.01050     3.19362
      C    8   -0.24840      0.99959     2.23735    0.01145     3.24840
      S    9    0.07653      4.99964     2.90662    0.01721     7.92347
      C   10   -0.24345      0.99956     2.23509    0.00880     3.24345
      H   11    0.09489      0.00000     0.40410    0.00100     0.40511
      H   12    0.09773      0.00000     0.40092    0.00136     0.40227
      H   13    0.10083      0.00000     0.39804    0.00113     0.39917
      H   14    0.09577      0.00000     0.40182    0.00241     0.40423
      H   15    0.09410      0.00000     0.40476    0.00114     0.40590
      H   16    0.09973      0.00000     0.39890    0.00138     0.40027
      H   17    0.09961      0.00000     0.39924    0.00115     0.40039
      H   18    0.10143      0.00000     0.39738    0.00119     0.39857
      H   19    0.09393      0.00000     0.40485    0.00122     0.40607
      H   20    0.09666      0.00000     0.40130    0.00204     0.40334
      H   21    0.09712      0.00000     0.40069    0.00219     0.40288
      H   22    0.10400      0.00000     0.39436    0.00163     0.39600
      H   23    0.10312      0.00000     0.39472    0.00215     0.39688
      H   24    0.09538      0.00000     0.40303    0.00159     0.40462
      H   25    0.09906      0.00000     0.39936    0.00158     0.40094
      H   26    0.10586      0.00000     0.39301    0.00113     0.39414
      H   27    0.10485      0.00000     0.39409    0.00106     0.39515
      H   28    0.10163      0.00000     0.39657    0.00180     0.39837
 =======================================================================
   * Total *   -0.00000     13.99609    29.87257    0.13134    44.00000

 Normal termination of Gaussian 16 at Tue Dec  8 10:44:25 2020.
