 Gaussian 16, Revision A.03,

 -----------------------------------------------------------
 # opt freq B3LYP/6-31G(d) empiricaldispersion=gd3bj scf=xqc
 -----------------------------------------------------------

 -------------------------------
 CID_105708859_JID_8435_neutraal
 -------------------------------
 Symbolic Z-matrix:
 Charge =  0 Multiplicity = 1

 SCF Done:  E(RB3LYP) =  -786.861408406     A.U. after   15 cycles
 SCF Done:  E(RB3LYP) =  -786.869659961     A.U. after   13 cycles
 SCF Done:  E(RB3LYP) =  -786.871293319     A.U. after   12 cycles
 SCF Done:  E(RB3LYP) =  -786.872704813     A.U. after   12 cycles
 SCF Done:  E(RB3LYP) =  -786.873475075     A.U. after   12 cycles
 SCF Done:  E(RB3LYP) =  -786.873886798     A.U. after   12 cycles
 SCF Done:  E(RB3LYP) =  -786.874271416     A.U. after   12 cycles
 SCF Done:  E(RB3LYP) =  -786.874530891     A.U. after   12 cycles
 SCF Done:  E(RB3LYP) =  -786.874611573     A.U. after   11 cycles
 SCF Done:  E(RB3LYP) =  -786.874662528     A.U. after   10 cycles
 SCF Done:  E(RB3LYP) =  -786.881108048     A.U. after   10 cycles
 SCF Done:  E(RB3LYP) =  -786.881122942     A.U. after   10 cycles
 SCF Done:  E(RB3LYP) =  -786.881125408     A.U. after    8 cycles
 SCF Done:  E(RB3LYP) =  -786.881125603     A.U. after    8 cycles
 SCF Done:  E(RB3LYP) =  -786.881125691     A.U. after    7 cycles
 Optimization completed.
    -- Stationary point found.
 Normal termination of Gaussian 16 at Sun Dec 13 12:56:11 2020.

 --------------------------------------------------------------------
 #N Geom=AllCheck Guess=TCheck SCRF=Check GenChk RB3LYP/6-31G(d) Freq
 --------------------------------------------------------------------

 Structure from the checkpoint file:  "JID_8435.chk"
 -------------------------------
 CID_105708859_JID_8435_neutraal
 -------------------------------
 Charge =  0 Multiplicity = 1

 SCF Done:  E(RB3LYP) =  -786.881125691     A.U. after    1 cycles

  Exact polarizability: 226.580 -21.219 146.554  17.332  17.828 145.327
 Approx polarizability: 299.407 -41.406 238.455  27.543  41.200 231.200

                      1                      2                      3
                      A                      A                      A
 Frequencies --     24.1670                38.1178                67.3584
 Red. masses --      4.0209                 3.6911                 3.6641
 Frc consts  --      0.0014                 0.0032                 0.0098
 IR Inten    --      0.5321                 0.6211                 2.6978

                      4                      5                      6
                      A                      A                      A
 Frequencies --     86.6287                99.0461               112.9789
 Red. masses --      3.6813                 4.0650                 3.1645
 Frc consts  --      0.0163                 0.0235                 0.0238
 IR Inten    --      3.8597                 0.6768                 1.7640

                      7                      8                      9
                      A                      A                      A
 Frequencies --    131.1276               147.2284               184.7080
 Red. masses --      3.1739                 4.1143                 3.5269
 Frc consts  --      0.0322                 0.0525                 0.0709
 IR Inten    --      3.9849                 3.3246                 1.0344

                     10                     11                     12
                      A                      A                      A
 Frequencies --    202.7106               226.5131               234.2797
 Red. masses --      2.7253                 1.2803                 1.6907
 Frc consts  --      0.0660                 0.0387                 0.0547
 IR Inten    --      6.0031                16.5208                27.9698

                     13                     14                     15
                      A                      A                      A
 Frequencies --    250.8693               262.2312               274.4217
 Red. masses --      1.1302                 1.2288                 1.4066
 Frc consts  --      0.0419                 0.0498                 0.0624
 IR Inten    --      0.0147                 7.4569                 5.3983

                     16                     17                     18
                      A                      A                      A
 Frequencies --    296.4412               305.5705               310.2213
 Red. masses --      2.7106                 2.0690                 2.4136
 Frc consts  --      0.1403                 0.1138                 0.1369
 IR Inten    --     16.1545                41.2872                 2.1590

                     19                     20                     21
                      A                      A                      A
 Frequencies --    340.4388               341.3622               369.4604
 Red. masses --      3.4033                 2.1168                 3.3587
 Frc consts  --      0.2324                 0.1453                 0.2701
 IR Inten    --      0.8106                 0.3749                 0.6685

                     22                     23                     24
                      A                      A                      A
 Frequencies --    384.4716               411.5538               425.7870
 Red. masses --      2.0326                 2.4069                 3.1509
 Frc consts  --      0.1770                 0.2402                 0.3366
 IR Inten    --      0.0271                 1.1487                 0.9948

                     25                     26                     27
                      A                      A                      A
 Frequencies --    433.4797               461.1362               496.7781
 Red. masses --      2.2416                 2.8228                 2.9081
 Frc consts  --      0.2482                 0.3537                 0.4228
 IR Inten    --      0.2501                 0.6767                 9.7804

                     28                     29                     30
                      A                      A                      A
 Frequencies --    521.5528               540.3234               572.3836
 Red. masses --      3.6206                 2.8240                 2.1352
 Frc consts  --      0.5803                 0.4858                 0.4121
 IR Inten    --     24.1373                19.8235                94.8370

                     31                     32                     33
                      A                      A                      A
 Frequencies --    579.5867               644.4062               651.5513
 Red. masses --      3.0868                 2.2773                 6.0429
 Frc consts  --      0.6109                 0.5572                 1.5115
 IR Inten    --     65.3926                22.6719                 4.0138

                     34                     35                     36
                      A                      A                      A
 Frequencies --    666.9581               710.0704               732.2211
 Red. masses --      1.9748                 2.8884                 2.9017
 Frc consts  --      0.5176                 0.8581                 0.9166
 IR Inten    --     15.5900                 0.0901                30.1665

                     37                     38                     39
                      A                      A                      A
 Frequencies --    742.9797               782.8355               829.7287
 Red. masses --      2.6312                 4.3399                 1.4077
 Frc consts  --      0.8558                 1.5670                 0.5710
 IR Inten    --     39.6014                73.9101                15.6091

                     40                     41                     42
                      A                      A                      A
 Frequencies --    843.4882               862.9012               870.4025
 Red. masses --      3.1167                 2.3579                 1.6782
 Frc consts  --      1.3065                 1.0344                 0.7491
 IR Inten    --     26.7480                 4.7275                24.5182

                     43                     44                     45
                      A                      A                      A
 Frequencies --    911.3018               931.7411               935.9761
 Red. masses --      1.8814                 1.8511                 1.7226
 Frc consts  --      0.9205                 0.9468                 0.8892
 IR Inten    --      7.5476               122.1673                 2.8755

                     46                     47                     48
                      A                      A                      A
 Frequencies --    946.2117               959.1254               960.4927
 Red. masses --      1.3572                 1.2834                 1.4599
 Frc consts  --      0.7159                 0.6956                 0.7935
 IR Inten    --      0.0627                 1.8103                 0.6170

                     49                     50                     51
                      A                      A                      A
 Frequencies --    982.1043               984.6457               997.2597
 Red. masses --      1.4291                 1.3010                 1.5397
 Frc consts  --      0.8121                 0.7431                 0.9022
 IR Inten    --      0.7130                 0.7945                 3.3407

                     52                     53                     54
                      A                      A                      A
 Frequencies --   1028.7755              1034.8042              1091.9511
 Red. masses --      2.1318                 1.6575                 2.6007
 Frc consts  --      1.3293                 1.0457                 1.8270
 IR Inten    --      7.7217                 0.1329                 9.1800

                     55                     56                     57
                      A                      A                      A
 Frequencies --   1118.0443              1134.2449              1136.7344
 Red. masses --      1.5771                 2.0055                 2.1409
 Frc consts  --      1.1615                 1.5202                 1.6299
 IR Inten    --      3.8151                10.2779                 1.9316

                     58                     59                     60
                      A                      A                      A
 Frequencies --   1163.1412              1184.3484              1196.7878
 Red. masses --      1.9130                 2.8036                 1.9200
 Frc consts  --      1.5248                 2.3170                 1.6202
 IR Inten    --     25.1329                17.3955                 8.9876

                     61                     62                     63
                      A                      A                      A
 Frequencies --   1206.8172              1221.1742              1232.4544
 Red. masses --      1.2387                 2.3799                 1.8913
 Frc consts  --      1.0629                 2.0910                 1.6926
 IR Inten    --     66.5506                 6.5595                21.8080

                     64                     65                     66
                      A                      A                      A
 Frequencies --   1273.5410              1314.5880              1323.6150
 Red. masses --      2.6000                 1.8914                 1.6779
 Frc consts  --      2.4846                 1.9258                 1.7320
 IR Inten    --      0.5729                17.7180               130.9424

                     67                     68                     69
                      A                      A                      A
 Frequencies --   1328.5633              1344.0730              1369.4854
 Red. masses --      1.2901                 1.5632                 1.4152
 Frc consts  --      1.3416                 1.6639                 1.5638
 IR Inten    --     11.2363                 1.9878                 8.5905

                     70                     71                     72
                      A                      A                      A
 Frequencies --   1372.6223              1375.9203              1398.3629
 Red. masses --      2.3386                 1.8618                 1.7620
 Frc consts  --      2.5960                 2.0767                 2.0300
 IR Inten    --      8.3742                99.1115               141.1150

                     73                     74                     75
                      A                      A                      A
 Frequencies --   1426.1851              1428.0068              1440.7360
 Red. masses --      1.5680                 1.2548                 1.2296
 Frc consts  --      1.8791                 1.5075                 1.5038
 IR Inten    --    135.7720                 1.3518                10.7106

                     76                     77                     78
                      A                      A                      A
 Frequencies --   1452.1849              1459.7388              1464.6513
 Red. masses --      1.2404                 2.4542                 1.2857
 Frc consts  --      1.5412                 3.0811                 1.6250
 IR Inten    --      9.2679                17.3821                 5.0257

                     79                     80                     81
                      A                      A                      A
 Frequencies --   1494.6844              1514.3322              1520.5004
 Red. masses --      1.5141                 1.0575                 1.0652
 Frc consts  --      1.9930                 1.4288                 1.4510
 IR Inten    --     74.4823                 1.3294                 0.7866

                     82                     83                     84
                      A                      A                      A
 Frequencies --   1525.4910              1531.8054              1532.0100
 Red. masses --      1.0695                 1.4716                 1.1060
 Frc consts  --      1.4665                 2.0345                 1.5294
 IR Inten    --      0.9229                 2.6906                 6.2487

                     85                     86                     87
                      A                      A                      A
 Frequencies --   1535.7922              1541.1633              1545.1905
 Red. masses --      1.0701                 1.0500                 1.0549
 Frc consts  --      1.4870                 1.4694                 1.4839
 IR Inten    --      0.7523                11.6129                 5.1819

                     88                     89                     90
                      A                      A                      A
 Frequencies --   1553.2001              1555.8549              1566.1339
 Red. masses --      1.0595                 1.0544                 2.7734
 Frc consts  --      1.5060                 1.5038                 4.0079
 IR Inten    --      2.0706                 0.7839                31.8884

                     91                     92                     93
                      A                      A                      A
 Frequencies --   1634.6507              1670.3043              1720.0128
 Red. masses --      4.5041                 4.6250                 1.1584
 Frc consts  --      7.0911                 7.6024                 2.0192
 IR Inten    --      6.3164               194.6890                47.8056

                     94                     95                     96
                      A                      A                      A
 Frequencies --   1745.4436              3000.7296              3017.0190
 Red. masses --      7.5700                 1.0832                 1.0739
 Frc consts  --     13.5881                 5.7467                 5.7591
 IR Inten    --    295.1108                34.5540                46.1755

                     97                     98                     99
                      A                      A                      A
 Frequencies --   3044.3178              3049.9759              3055.2157
 Red. masses --      1.0360                 1.0368                 1.0388
 Frc consts  --      5.6570                 5.6827                 5.7131
 IR Inten    --     15.6847                43.0286                32.3371

                    100                    101                    102
                      A                      A                      A
 Frequencies --   3060.6747              3105.6875              3110.9034
 Red. masses --      1.0391                 1.1024                 1.1000
 Frc consts  --      5.7348                 6.2649                 6.2722
 IR Inten    --     20.5808                 1.2229                13.9236

                    103                    104                    105
                      A                      A                      A
 Frequencies --   3112.5245              3115.0446              3121.0335
 Red. masses --      1.1012                 1.1011                 1.0979
 Frc consts  --      6.2858                 6.2952                 6.3011
 IR Inten    --     67.6978                41.6416                27.7299

                    106                    107                    108
                      A                      A                      A
 Frequencies --   3124.3554              3133.6848              3149.9975
 Red. masses --      1.1000                 1.1008                 1.1010
 Frc consts  --      6.3268                 6.3687                 6.4367
 IR Inten    --     36.7150                25.5234                 9.0772

                    109                    110                    111
                      A                      A                      A
 Frequencies --   3153.8611              3170.2450              3207.3753
 Red. masses --      1.0888                 1.0884                 1.0923
 Frc consts  --      6.3812                 6.4448                 6.6203
 IR Inten    --     14.1011                20.4571                10.3823

                    112                    113                    114
                      A                      A                      A
 Frequencies --   3216.5391              3243.6336              3433.7303
 Red. masses --      1.0892                 1.0921                 1.0525
 Frc consts  --      6.6396                 6.7701                 7.3117
 IR Inten    --      1.4944                 1.6094                15.3787

                    115                    116                    117
                      A                      A                      A
 Frequencies --   3498.1240              3560.2426              3582.6771
 Red. masses --      1.0755                 1.0911                 1.0740
 Frc consts  --      7.7541                 8.1487                 8.1223
 IR Inten    --     10.4315                 2.0595                15.9237

 - Thermochemistry -
 -------------------
 Temperature   298.150 Kelvin.  Pressure   1.00000 Atm.
 Atom     1 has atomic number  6 and mass  12.00000

 Molecular mass:   249.18411 amu.
 Principal axes and moments of inertia in atomic units:
                           1         2         3
     Eigenvalues --  2372.026698566.159928957.83600
           X            1.00000   0.00151   0.00128
           Y           -0.00159   0.99771   0.06757
           Z           -0.00118  -0.06757   0.99771
 This molecule is an asymmetric top.
 Rotational symmetry number  1.
 Warning -- assumption of classical behavior for rotation
           may cause significant error
 Rotational temperatures (Kelvin)      0.03651     0.01011     0.00967
 Rotational constants (GHZ):           0.76084     0.21068     0.20147
 Zero-point vibrational energy     951360.5 (Joules/Mol)
                                  227.38061 (Kcal/Mol)
 Warning -- explicit consideration of  31 degrees of freedom as
           vibrations may cause significant error
 Vibrational temperatures:     34.77    54.84    96.91   124.64   142.51
          (Kelvin)            162.55   188.66   211.83   265.75   291.66
                              325.90   337.08   360.95   377.29   394.83
                              426.51   439.65   446.34   489.82   491.14
                              531.57   553.17   592.13   612.61   623.68
                              663.47   714.75   750.40   777.40   823.53
                              833.90   927.16   937.44   959.60  1021.63
                             1053.50  1068.98  1126.33  1193.79  1213.59
                             1241.52  1252.32  1311.16  1340.57  1346.66
                             1361.39  1379.97  1381.93  1413.03  1416.69
                             1434.83  1480.18  1488.85  1571.07  1608.62
                             1631.93  1635.51  1673.50  1704.01  1721.91
                             1736.34  1757.00  1773.23  1832.34  1891.40
                             1904.39  1911.51  1933.82  1970.38  1974.90
                             1979.64  2011.93  2051.96  2054.58  2072.90
                             2089.37  2100.24  2107.31  2150.52  2178.79
                             2187.66  2194.84  2203.93  2204.22  2209.66
                             2217.39  2223.18  2234.71  2238.53  2253.32
                             2351.90  2403.20  2474.71  2511.30  4317.38
                             4340.82  4380.09  4388.24  4395.77  4403.63
                             4468.39  4475.90  4478.23  4481.85  4490.47
                             4495.25  4508.67  4532.14  4537.70  4561.28
                             4614.70  4627.88  4666.87  4940.37  5033.02
                             5122.40  5154.67

 Zero-point correction=                           0.362354 (Hartree/Particle)
 Thermal correction to Energy=                    0.381475
 Thermal correction to Enthalpy=                  0.382419
 Thermal correction to Gibbs Free Energy=         0.315506
 Sum of electronic and zero-point Energies=           -786.518772
 Sum of electronic and thermal Energies=              -786.499651
 Sum of electronic and thermal Enthalpies=            -786.498707
 Sum of electronic and thermal Free Energies=         -786.565619

                     E (Thermal)             CV                S
                      KCal/Mol        Cal/Mol-Kelvin    Cal/Mol-Kelvin
 Total                  239.379             74.208            140.829
 Electronic               0.000              0.000              0.000
 Translational            0.889              2.981             42.440
 Rotational               0.889              2.981             33.564
 Vibrational            237.601             68.246             64.825
 Vibration     1          0.593              1.985              6.258
 Vibration     2          0.594              1.982              5.355
 Vibration     3          0.598              1.970              4.229
 Vibration     4          0.601              1.959              3.735
 Vibration     5          0.604              1.950              3.473
 Vibration     6          0.607              1.939              3.217
 Vibration     7          0.612              1.922              2.929
 Vibration     8          0.617              1.906              2.708
 Vibration     9          0.631              1.861              2.280
 Vibration    10          0.639              1.836              2.108
 Vibration    11          0.650              1.801              1.906
 Vibration    12          0.654              1.788              1.846
 Vibration    13          0.663              1.761              1.724
 Vibration    14          0.670              1.742              1.647
 Vibration    15          0.677              1.721              1.568
 Vibration    16          0.690              1.680              1.437
 Vibration    17          0.696              1.663              1.386
 Vibration    18          0.699              1.654              1.361
 Vibration    19          0.720              1.595              1.210
 Vibration    20          0.721              1.593              1.206
 Vibration    21          0.742              1.535              1.082
 Vibration    22          0.753              1.503              1.022
 Vibration    23          0.776              1.445              0.921
 Vibration    24          0.788              1.414              0.873
 Vibration    25          0.794              1.397              0.847
 Vibration    26          0.819              1.336              0.763
 Vibration    27          0.852              1.257              0.666
 Vibration    28          0.877              1.202              0.606
 Vibration    29          0.895              1.161              0.565
 Vibration    30          0.929              1.091              0.500
 Vibration    31          0.936              1.075              0.486

 Optimization completed.
    -- Stationary point found.
 Normal termination of Gaussian 16 at Sun Dec 13 13:16:21 2020.

 ----------------------------------------------------------------------
 # B3LYP/6-311++G(d,p) empiricaldispersion=gd3bj scf=xqc pop=npa geom=c
 heck
 ----------------------------------------------------------------------

 ---------------------------------------
 CID_105708859_JID_8435_Energie_neutraal
 ---------------------------------------
 Structure from the checkpoint file:  "JID_8435.chk"
 Charge =  0 Multiplicity = 1

 SCF Done:  E(RB3LYP) =  -787.111322140     A.U. after   16 cycles
 Normal termination of Gaussian 16 at Sun Dec 13 13:27:05 2020.

 ----------------------------------------------------------------------
 # B3LYP/6-311++G(d,p) empiricaldispersion=gd3bj scf=xqc pop=npa geom=c
 heck
 ----------------------------------------------------------------------

 -------------------------------------
 CID_105708859_JID_8435_Energie_kation
 -------------------------------------
 Structure from the checkpoint file:  "JID_8435.chk"
 Charge =  1 Multiplicity = 2

 SCF Done:  E(UB3LYP) =  -786.831756112     A.U. after   30 cycles
 Normal termination of Gaussian 16 at Sun Dec 13 13:54:00 2020.
 Gaussian 16:  ES64L-G16RevA.03 25-Dec-2016

 ----------------------------------------------------------------------
 # B3LYP/6-311++G(d,p) empiricaldispersion=gd3bj scf=xqc pop=npa geom=c
 heck
 ----------------------------------------------------------------------

 ------------------------------------
 CID_105708859_JID_8435_Energie_anion
 ------------------------------------
 Structure from the checkpoint file:  "JID_8435.chk"
 Charge = -1 Multiplicity = 2

                         Standard orientation:
 ---------------------------------------------------------------------
 Center     Atomic      Atomic             Coordinates (Angstroms)
 Number     Number       Type             X           Y           Z
 ---------------------------------------------------------------------
      1          6           0       -1.385995   -0.963974    1.869926
      2          6           0       -2.743859   -0.507753    1.311475
      3          6           0       -2.984090    0.962721    1.699506
      4          6           0       -2.942982   -0.856055   -0.202972
      5          6           0       -3.095373   -2.384949   -0.348016
      6          6           0       -4.234235   -0.215526   -0.744038
      7          6           0       -1.742072   -0.459679   -1.099177
      8          7           0       -1.449048    0.968018   -1.153882
      9          6           0       -0.384770    1.626512   -0.575765
     10          8           0       -0.515905    2.782167   -0.171264
     11          6           0        0.922688    0.917323   -0.488940
     12          6           0        1.780645    1.242877    0.571233
     13          6           0        3.026558    0.646700    0.704199
     14          6           0        3.463133   -0.281869   -0.255591
     15          6           0        2.621383   -0.592923   -1.338323
     16          6           0        1.370685   -0.000749   -1.449466
     17          7           0        4.730268   -0.862828   -0.196934
     18          7           0        5.399727   -0.846695    1.041591
     19          1           0       -0.561606   -0.359553    1.478334
     20          1           0       -1.168428   -2.013270    1.645547
     21          1           0       -1.376770   -0.854556    2.960111
     22          1           0       -3.518673   -1.091564    1.831538
     23          1           0       -2.249758    1.645567    1.263905
     24          1           0       -3.982732    1.306924    1.413710
     25          1           0       -2.911414    1.062055    2.789031
     26          1           0       -3.953522   -2.743700    0.231141
     27          1           0       -3.260859   -2.662926   -1.395567
     28          1           0       -2.207417   -2.922554   -0.000376
     29          1           0       -4.194042    0.878063   -0.764754
     30          1           0       -4.436025   -0.561508   -1.764777
     31          1           0       -5.092901   -0.492117   -0.121204
     32          1           0       -0.846704   -0.974426   -0.751204
     33          1           0       -1.944871   -0.826717   -2.115701
     34          1           0       -2.257029    1.577961   -1.199479
     35          1           0        1.445720    1.978959    1.294794
     36          1           0        3.679837    0.887025    1.533619
     37          1           0        2.961014   -1.291990   -2.099686
     38          1           0        0.745687   -0.236551   -2.305135
     39          1           0        4.813614   -1.718529   -0.738962
     40          1           0        5.252696   -1.716751    1.555259
     41          1           0        6.394490   -0.732572    0.870234
 ---------------------------------------------------------------------

 SCF Done:  E(UB3LYP) =  -787.107229879     A.U. after   33 cycles
 SCF Done:  E(UB3LYP) =  -787.107229879     a.u. after    1 cycles

 The electronic state is 2-A.
 Alpha  occ. eigenvalues --  -18.98983 -14.25012 -14.23924 -14.22993 -10.17486
 Alpha  occ. eigenvalues --  -10.11970 -10.11824 -10.10678 -10.09260 -10.08436
 Alpha  occ. eigenvalues --  -10.08395 -10.07980 -10.07957 -10.07719 -10.07593
 Alpha  occ. eigenvalues --  -10.06963 -10.06954 -10.06855  -0.94020  -0.88877
 Alpha  occ. eigenvalues --   -0.83023  -0.76566  -0.74676  -0.70695  -0.67810
 Alpha  occ. eigenvalues --   -0.65371  -0.63117  -0.62030  -0.60416  -0.58952
 Alpha  occ. eigenvalues --   -0.53540  -0.52599  -0.51832  -0.47878  -0.45911
 Alpha  occ. eigenvalues --   -0.43938  -0.42156  -0.40636  -0.40601  -0.40071
 Alpha  occ. eigenvalues --   -0.38737  -0.37376  -0.35281  -0.34873  -0.34303
 Alpha  occ. eigenvalues --   -0.34174  -0.32927  -0.32652  -0.32190  -0.31475
 Alpha  occ. eigenvalues --   -0.31253  -0.30260  -0.29387  -0.28677  -0.28238
 Alpha  occ. eigenvalues --   -0.27745  -0.27343  -0.26911  -0.24971  -0.23930
 Alpha  occ. eigenvalues --   -0.23553  -0.22953  -0.20909  -0.17423  -0.16978
 Alpha  occ. eigenvalues --   -0.16288  -0.15518  -0.11236   0.03582
 Alpha virt. eigenvalues --    0.04986   0.06179   0.06609   0.07081   0.07490
 Alpha virt. eigenvalues --    0.07994   0.08184   0.08862   0.09452   0.09693
 Alpha virt. eigenvalues --    0.09851   0.09901   0.10606   0.11686   0.12124

  Beta  occ. eigenvalues --  -18.98960 -14.24973 -14.23918 -14.22917 -10.17463
  Beta  occ. eigenvalues --  -10.11952 -10.11814 -10.10676 -10.09254 -10.08408
  Beta  occ. eigenvalues --  -10.08379 -10.07962 -10.07952 -10.07708 -10.07590
  Beta  occ. eigenvalues --  -10.06954 -10.06950 -10.06844  -0.93976  -0.88779
  Beta  occ. eigenvalues --   -0.83000  -0.76512  -0.74662  -0.70583  -0.67795
  Beta  occ. eigenvalues --   -0.65328  -0.63035  -0.62005  -0.60384  -0.58931
  Beta  occ. eigenvalues --   -0.53482  -0.52572  -0.51772  -0.47838  -0.45885
  Beta  occ. eigenvalues --   -0.43858  -0.42050  -0.40584  -0.40574  -0.39997
  Beta  occ. eigenvalues --   -0.38714  -0.37353  -0.35235  -0.34845  -0.34283
  Beta  occ. eigenvalues --   -0.34143  -0.32893  -0.32628  -0.32165  -0.31438
  Beta  occ. eigenvalues --   -0.31221  -0.30236  -0.29349  -0.28661  -0.28205
  Beta  occ. eigenvalues --   -0.27679  -0.27318  -0.26889  -0.24950  -0.23904
  Beta  occ. eigenvalues --   -0.23538  -0.22932  -0.20817  -0.17357  -0.16928
  Beta  occ. eigenvalues --   -0.16211  -0.15464  -0.11151
  Beta virt. eigenvalues --    0.05288   0.06347   0.06779   0.06826   0.07286
  Beta virt. eigenvalues --    0.07838   0.08223   0.08545   0.09143   0.09574
  Beta virt. eigenvalues --    0.09813   0.10027   0.10355   0.11046   0.11867

 Mulliken charges and spin densities:
               1          2
     1  C   -0.290932  -0.493600
     2  C    0.165594   0.296610
     3  C   -0.729401  -0.028968
     4  C   -0.649094   0.925595
     5  C    0.203758  -0.739558
     6  C    0.011204  -0.534570
     7  C   -0.000020  -0.484558
     8  N   -0.081882   0.064806
     9  C    0.052654  -0.763158
    10  O   -0.285464   0.012241
    11  C    0.738051   0.062423
    12  C   -0.261981   0.397503
    13  C   -0.354853   0.390311
    14  C    0.051041  -0.704984
    15  C    0.261332  -0.582880
    16  C   -0.112193  -0.229872
    17  N    0.049306  -0.101090
    18  N   -0.295704  -0.114707
    19  H    0.205089   0.021150
    20  H    0.036580   0.088527
    21  H    0.079075   0.046712
    22  H    0.071453   0.126729
    23  H    0.193934   0.003950
    24  H    0.073820   0.051719
    25  H    0.110396   0.015057
    26  H   -0.075701   0.229534
    27  H    0.043582   0.094705
    28  H   -0.030697   0.161482
    29  H    0.119200  -0.014829
    30  H   -0.024466   0.173220
    31  H   -0.069953   0.237056
    32  H    0.265376  -0.115723
    33  H    0.004075   0.184896
    34  H    0.275901   0.035766
    35  H    0.171334   0.030654
    36  H    0.167723   0.061687
    37  H   -0.535208   0.706500
    38  H    0.127299   0.060064
    39  H   -0.293290   0.545106
    40  H   -0.238635   0.480149
    41  H   -0.148304   0.404343
 Sum of Mulliken charges =  -1.00000   1.00000

 Dipole moment (field-independent basis, Debye):
    X=             -9.0947    Y=              2.2303    Z=              0.0015  Tot=              9.3642
 Quadrupole moment (field-independent basis, Debye-Ang):
   XX=           -223.2054   YY=           -162.4685   ZZ=           -139.8480
   XY=             16.4438   XZ=             -2.6751   YZ=              1.6808

 Summary of Natural Population Analysis:

                                       Natural Population
                Natural  -----------------------------------------------
    Atom  No    Charge         Core      Valence    Rydberg      Total
 -----------------------------------------------------------------------
      C    1   -0.28980      0.99964     2.28368    0.00648     3.28980
      C    2   -0.10863      0.99957     2.09859    0.01046     3.10863
      C    3   -0.29039      0.99964     2.28556    0.00518     3.29039
      C    4   -0.04265      0.99956     2.03148    0.01161     3.04265
      C    5   -0.28521      0.99963     2.27838    0.00720     3.28521
      C    6   -0.28940      0.99963     2.28232    0.00746     3.28940
      C    7   -0.09187      0.99955     2.07971    0.01261     3.09187
      N    8   -0.32296      0.99967     2.81391    0.00938     3.82296
      C    9    0.33991      0.99960     1.63855    0.02193     2.66009
      O   10   -0.32635      0.99988     3.32136    0.00511     4.32635
      C   11   -0.09911      0.99945     2.08900    0.01066     3.09911
      C   12   -0.06989      0.99954     2.06219    0.00816     3.06989
      C   13   -0.12621      0.99952     2.11740    0.00929     3.12621
      C   14    0.10033      0.99948     1.88722    0.01297     2.89967
      C   15   -0.12598      0.99952     2.11636    0.01009     3.12598
      C   16   -0.08001      0.99954     2.07155    0.00891     3.08001
      N   17   -0.22229      0.99966     2.70712    0.01551     3.72229
      N   18   -0.32389      0.99976     2.81094    0.01318     3.82389
      H   19    0.10428      0.00000     0.39455    0.00117     0.39572
      H   20    0.09939      0.00000     0.39986    0.00075     0.40061
      H   21    0.09902      0.00000     0.40029    0.00069     0.40098
      H   22    0.09205      0.00000     0.40636    0.00159     0.40795
      H   23    0.10925      0.00000     0.38950    0.00125     0.39075
      H   24    0.09620      0.00000     0.40304    0.00076     0.40380
      H   25    0.09702      0.00000     0.40218    0.00080     0.40298
      H   26    0.10090      0.00000     0.39813    0.00096     0.39910
      H   27    0.09966      0.00000     0.39946    0.00087     0.40034
      H   28    0.10266      0.00000     0.39649    0.00085     0.39734
      H   29    0.09701      0.00000     0.40206    0.00093     0.40299
      H   30    0.10066      0.00000     0.39855    0.00079     0.39934
      H   31    0.10249      0.00000     0.39674    0.00077     0.39751
      H   32    0.11130      0.00000     0.38720    0.00150     0.38870
      H   33    0.09230      0.00000     0.40659    0.00110     0.40770
      H   34    0.18950      0.00000     0.30824    0.00226     0.31050
      H   35    0.10774      0.00000     0.39127    0.00099     0.39226
      H   36    0.11408      0.00000     0.38480    0.00112     0.38592
      H   37    0.10240      0.00000     0.39634    0.00126     0.39760
      H   38    0.10198      0.00000     0.39664    0.00138     0.39802
      H   39    0.17921      0.00000     0.31050    0.01028     0.32079
      H   40    0.17609      0.00000     0.31657    0.00733     0.32391
      H   41    0.17919      0.00000     0.31758    0.00323     0.32081
 =======================================================================
   * Total *   -0.00000     17.99284    49.77829    0.22887    68.00000

 Normal termination of Gaussian 16 at Sun Dec 13 14:22:37 2020.
