 Gaussian 16, Revision A.03,

 -----------------------------------------------------------
 # opt freq B3LYP/6-31G(d) empiricaldispersion=gd3bj scf=xqc
 -----------------------------------------------------------

 ------------------------------
 CID_141706107_JID_907_neutraal
 ------------------------------
 Symbolic Z-matrix:
 Charge =  0 Multiplicity = 1

 SCF Done:  E(RB3LYP) =  -819.996789777     A.U. after   14 cycles
 SCF Done:  E(RB3LYP) =  -820.000676316     A.U. after   11 cycles
 SCF Done:  E(RB3LYP) =  -820.001256893     A.U. after   11 cycles
 SCF Done:  E(RB3LYP) =  -820.001602830     A.U. after   12 cycles
 SCF Done:  E(RB3LYP) =  -820.001790403     A.U. after   12 cycles
 SCF Done:  E(RB3LYP) =  -820.001924077     A.U. after   12 cycles
 SCF Done:  E(RB3LYP) =  -820.002012179     A.U. after   12 cycles
 SCF Done:  E(RB3LYP) =  -820.002056102     A.U. after   12 cycles
 SCF Done:  E(RB3LYP) =  -820.002114521     A.U. after   12 cycles
 SCF Done:  E(RB3LYP) =  -820.002238163     A.U. after   12 cycles
 SCF Done:  E(RB3LYP) =  -820.002394882     A.U. after   12 cycles
 SCF Done:  E(RB3LYP) =  -820.002410587     A.U. after   11 cycles
 SCF Done:  E(RB3LYP) =  -820.002410179     A.U. after   10 cycles
 SCF Done:  E(RB3LYP) =  -820.002411565     A.U. after   10 cycles
 SCF Done:  E(RB3LYP) =  -820.002411694     A.U. after    9 cycles
 SCF Done:  E(RB3LYP) =  -820.002411719     A.U. after    7 cycles
 Optimization completed.
    -- Stationary point found.
 Normal termination of Gaussian 16 at Tue Dec  8 13:47:08 2020.

 --------------------------------------------------------------------
 #N Geom=AllCheck Guess=TCheck SCRF=Check GenChk RB3LYP/6-31G(d) Freq
 --------------------------------------------------------------------

 Structure from the checkpoint file:  "JID_907.chk"
 ------------------------------
 CID_141706107_JID_907_neutraal
 ------------------------------
 Charge =  0 Multiplicity = 1

 SCF Done:  E(RB3LYP) =  -820.002411719     A.U. after    1 cycles

  Exact polarizability: 105.110   9.240 119.129  -6.859   0.039  74.172
 Approx polarizability: 129.250  22.031 191.060 -11.431  -4.541 111.781

                      1                      2                      3
                      A                      A                      A
 Frequencies --     22.4908                38.0096                58.5396
 Red. masses --      3.4124                 4.8081                 3.6421
 Frc consts  --      0.0010                 0.0041                 0.0074
 IR Inten    --      1.6811                 1.3414                 0.7843

                      4                      5                      6
                      A                      A                      A
 Frequencies --     80.1348               102.0139               148.9913
 Red. masses --      4.4332                 3.1416                 3.3086
 Frc consts  --      0.0168                 0.0193                 0.0433
 IR Inten    --      2.1829                 2.7204                 1.5592

                      7                      8                      9
                      A                      A                      A
 Frequencies --    161.3526               246.7631               267.1903
 Red. masses --      1.0406                 2.7785                 1.6162
 Frc consts  --      0.0160                 0.0997                 0.0680
 IR Inten    --      0.0647                15.2305                38.3843

                     10                     11                     12
                      A                      A                      A
 Frequencies --    309.6780               344.3235               371.5004
 Red. masses --      2.0068                 2.1678                 2.5634
 Frc consts  --      0.1134                 0.1514                 0.2084
 IR Inten    --     13.9166                17.8520                11.4101

                     13                     14                     15
                      A                      A                      A
 Frequencies --    385.7792               463.8257               499.2876
 Red. masses --      3.1757                 2.8834                 2.9269
 Frc consts  --      0.2785                 0.3655                 0.4299
 IR Inten    --      0.4872                 6.4059                 3.3068

                     16                     17                     18
                      A                      A                      A
 Frequencies --    519.8316               562.0306               708.4117
 Red. masses --      2.6287                 2.3295                 1.6703
 Frc consts  --      0.4185                 0.4335                 0.4939
 IR Inten    --     13.5050                 6.5565                72.0779

                     19                     20                     21
                      A                      A                      A
 Frequencies --    730.7976               833.5045               878.9921
 Red. masses --      1.9414                 1.8158                 1.9141
 Frc consts  --      0.6109                 0.7432                 0.8713
 IR Inten    --     31.9860                14.5789                22.9356

                     22                     23                     24
                      A                      A                      A
 Frequencies --    894.4294               918.7847               935.4846
 Red. masses --      1.6450                 2.1702                 1.7167
 Frc consts  --      0.7754                 1.0794                 0.8852
 IR Inten    --    114.2306                22.0979                18.0858

                     25                     26                     27
                      A                      A                      A
 Frequencies --   1012.9505              1017.3477              1047.3356
 Red. masses --      2.3531                 1.7601                 1.5227
 Frc consts  --      1.4226                 1.0733                 0.9841
 IR Inten    --     13.3689                24.2985                 1.2307

                     28                     29                     30
                      A                      A                      A
 Frequencies --   1103.9431              1109.3906              1124.1734
 Red. masses --      1.8651                 2.3522                 3.0285
 Frc consts  --      1.3392                 1.7057                 2.2550
 IR Inten    --     16.9805                46.5934                 0.9378

                     31                     32                     33
                      A                      A                      A
 Frequencies --   1152.2292              1158.1830              1198.3302
 Red. masses --      4.2608                 1.8779                 1.6603
 Frc consts  --      3.3329                 1.4842                 1.4048
 IR Inten    --    106.0300                26.5025                25.9151

                     34                     35                     36
                      A                      A                      A
 Frequencies --   1226.9685              1275.6630              1306.0513
 Red. masses --      1.9400                 1.1252                 1.2699
 Frc consts  --      1.7208                 1.0789                 1.2763
 IR Inten    --     19.4898                 5.8146                11.7229

                     37                     38                     39
                      A                      A                      A
 Frequencies --   1315.2466              1360.4817              1379.1314
 Red. masses --      1.3425                 1.1575                 1.5999
 Frc consts  --      1.3683                 1.2622                 1.7929
 IR Inten    --     92.1566                 1.0926                79.1271

                     40                     41                     42
                      A                      A                      A
 Frequencies --   1404.4906              1416.8990              1435.4684
 Red. masses --      1.2557                 1.2571                 1.5731
 Frc consts  --      1.4594                 1.4870                 1.9098
 IR Inten    --     41.4717                 3.3670                29.7699

                     43                     44                     45
                      A                      A                      A
 Frequencies --   1437.6268              1468.6150              1497.0332
 Red. masses --      1.3435                 1.5531                 1.0790
 Frc consts  --      1.6360                 1.9736                 1.4247
 IR Inten    --      7.9735                 6.7790                23.0540

                     46                     47                     48
                      A                      A                      A
 Frequencies --   1514.6542              1518.2820              1525.5549
 Red. masses --      1.0900                 1.0667                 1.0853
 Frc consts  --      1.4733                 1.4488                 1.4882
 IR Inten    --     13.2977                18.3249                 8.0695

                     49                     50                     51
                      A                      A                      A
 Frequencies --   1531.0412              1544.7322              1574.5330
 Red. masses --      1.0904                 1.0942                 1.8985
 Frc consts  --      1.5059                 1.5384                 2.7730
 IR Inten    --      4.7256                 2.7922               253.7018

                     52                     53                     54
                      A                      A                      A
 Frequencies --   1690.5328              2962.2099              3017.8660
 Red. masses --      1.0883                 1.0734                 1.0555
 Frc consts  --      1.8325                 5.5493                 5.6639
 IR Inten    --     38.5667                68.6698                18.6544

                     55                     56                     57
                      A                      A                      A
 Frequencies --   3030.9239              3045.0141              3068.0701
 Red. masses --      1.0569                 1.0419                 1.1092
 Frc consts  --      5.7205                 5.6917                 6.1515
 IR Inten    --     48.3454                15.8814                42.0943

                     58                     59                     60
                      A                      A                      A
 Frequencies --   3071.0546              3080.2410              3088.8132
 Red. masses --      1.0966                 1.0888                 1.0729
 Frc consts  --      6.0936                 6.0864                 6.0312
 IR Inten    --      7.5002                33.3858                66.0967

                     61                     62                     63
                      A                      A                      A
 Frequencies --   3099.5358              3137.4794              3193.1672
 Red. masses --      1.1002                 1.1044                 1.0970
 Frc consts  --      6.2277                 6.4056                 6.5904
 IR Inten    --     12.6457                18.9650                 2.4807

                     64                     65                     66
                      A                      A                      A
 Frequencies --   3476.7835              3562.3386              3578.5253
 Red. masses --      1.0495                 1.0924                 1.0759
 Frc consts  --      7.4747                 8.1679                 8.1178
 IR Inten    --      2.1201                 0.1500                23.1950

 - Thermochemistry -
 -------------------
 Temperature   298.150 Kelvin.  Pressure   1.00000 Atm.
 Atom     1 has atomic number  6 and mass  12.00000

 Molecular mass:   162.08268 amu.
 Principal axes and moments of inertia in atomic units:
                           1         2         3
     Eigenvalues --  1075.574593173.407933912.07374
           X            0.99921  -0.03837  -0.01011
           Y            0.03846   0.99922   0.00852
           Z            0.00978  -0.00890   0.99991
 This molecule is an asymmetric top.
 Rotational symmetry number  1.
 Warning -- assumption of classical behavior for rotation
           may cause significant error
 Rotational temperatures (Kelvin)      0.08053     0.02729     0.02214
 Rotational constants (GHZ):           1.67793     0.56871     0.46133
 Zero-point vibrational energy     551724.1 (Joules/Mol)
                                  131.86521 (Kcal/Mol)
 Warning -- explicit consideration of  17 degrees of freedom as
           vibrations may cause significant error
 Vibrational temperatures:     32.36    54.69    84.23   115.30   146.78
          (Kelvin)            214.37   232.15   355.04   384.43   445.56
                              495.40   534.51   555.05   667.34   718.36
                              747.92   808.64  1019.25  1051.45  1199.23
                             1264.67  1286.88  1321.93  1345.95  1457.41
                             1463.74  1506.88  1588.33  1596.17  1617.43
                             1657.80  1666.37  1724.13  1765.33  1835.39
                             1879.12  1892.35  1957.43  1984.26  2020.75
                             2038.60  2065.32  2068.42  2113.01  2153.90
                             2179.25  2184.47  2194.93  2202.83  2222.53
                             2265.40  2432.30  4261.96  4342.04  4360.82
                             4381.10  4414.27  4418.56  4431.78  4444.11
                             4459.54  4514.13  4594.26  5002.32  5125.41
                             5148.70

 Zero-point correction=                           0.210141 (Hartree/Particle)
 Thermal correction to Energy=                    0.222427
 Thermal correction to Enthalpy=                  0.223372
 Thermal correction to Gibbs Free Energy=         0.169369
 Sum of electronic and zero-point Energies=           -819.792271
 Sum of electronic and thermal Energies=              -819.779984
 Sum of electronic and thermal Enthalpies=            -819.779040
 Sum of electronic and thermal Free Energies=         -819.833043

                     E (Thermal)             CV                S
                      KCal/Mol        Cal/Mol-Kelvin    Cal/Mol-Kelvin
 Total                  139.575             42.823            113.659
 Electronic               0.000              0.000              0.000
 Translational            0.889              2.981             41.158
 Rotational               0.889              2.981             30.969
 Vibrational            137.798             36.862             41.533
 Vibration     1          0.593              1.985              6.401
 Vibration     2          0.594              1.982              5.360
 Vibration     3          0.596              1.974              4.506
 Vibration     4          0.600              1.963              3.888
 Vibration     5          0.604              1.948              3.415
 Vibration     6          0.618              1.904              2.685
 Vibration     7          0.622              1.890              2.534
 Vibration     8          0.661              1.768              1.754
 Vibration     9          0.672              1.733              1.614
 Vibration    10          0.699              1.655              1.364
 Vibration    11          0.723              1.587              1.192
 Vibration    12          0.743              1.531              1.074
 Vibration    13          0.754              1.501              1.016
 Vibration    14          0.821              1.330              0.755
 Vibration    15          0.855              1.252              0.660
 Vibration    16          0.875              1.206              0.610
 Vibration    17          0.918              1.113              0.520

 Optimization completed.
    -- Stationary point found.
 Normal termination of Gaussian 16 at Tue Dec  8 13:53:32 2020.

 ----------------------------------------------------------------------
 # B3LYP/6-311++G(d,p) empiricaldispersion=gd3bj scf=xqc pop=npa geom=c
 heck
 ----------------------------------------------------------------------

 --------------------------------------
 CID_141706107_JID_907_Energie_neutraal
 --------------------------------------
 Structure from the checkpoint file:  "JID_907.chk"
 Charge =  0 Multiplicity = 1

 SCF Done:  E(RB3LYP) =  -820.164007653     A.U. after   14 cycles
 Normal termination of Gaussian 16 at Tue Dec  8 13:59:02 2020.

 ----------------------------------------------------------------------
 # B3LYP/6-311++G(d,p) empiricaldispersion=gd3bj scf=xqc pop=npa geom=c
 heck
 ----------------------------------------------------------------------

 ------------------------------------
 CID_141706107_JID_907_Energie_kation
 ------------------------------------
 Structure from the checkpoint file:  "JID_907.chk"
 Charge =  1 Multiplicity = 2

 SCF Done:  E(UB3LYP) =  -819.872851229     A.U. after   24 cycles
 Normal termination of Gaussian 16 at Tue Dec  8 14:05:12 2020.
 Gaussian 16:  ES64L-G16RevA.03 25-Dec-2016

 ----------------------------------------------------------------------
 # B3LYP/6-311++G(d,p) empiricaldispersion=gd3bj scf=xqc pop=npa geom=c
 heck
 ----------------------------------------------------------------------

 -----------------------------------
 CID_141706107_JID_907_Energie_anion
 -----------------------------------
 Structure from the checkpoint file:  "JID_907.chk"
 Charge = -1 Multiplicity = 2

                         Standard orientation:
 ---------------------------------------------------------------------
 Center     Atomic      Atomic             Coordinates (Angstroms)
 Number     Number       Type             X           Y           Z
 ---------------------------------------------------------------------
      1          6           0       -2.850851    0.770847    0.878721
      2          6           0       -2.076682   -0.127580   -0.057978
      3         16           0       -2.343612   -1.771897   -0.144702
      4          7           0       -1.151591    0.470551   -0.838652
      5          6           0       -0.570298    1.794872   -0.665068
      6          6           0        0.629643    1.765110    0.288810
      7          8           0        1.588006    0.830461   -0.172396
      8          6           0        1.682718   -0.369182    0.603937
      9          6           0        2.778865   -1.216639   -0.012138
     10          7           0        4.063263   -0.525620    0.107416
     11          1           0       -3.614054    0.189625    1.392893
     12          1           0       -3.332832    1.589174    0.329398
     13          1           0       -2.187700    1.220781    1.628345
     14          1           0       -0.609466   -0.169324   -1.408543
     15          1           0       -0.237997    2.139219   -1.649397
     16          1           0       -1.330586    2.494739   -0.308959
     17          1           0        1.095546    2.758953    0.320017
     18          1           0        0.299162    1.515175    1.306117
     19          1           0        1.946763   -0.118707    1.641129
     20          1           0        0.728140   -0.913696    0.599520
     21          1           0        2.830807   -2.162667    0.540010
     22          1           0        2.482716   -1.460778   -1.048418
     23          1           0        4.790170   -1.059555   -0.364708
     24          1           0        3.991007    0.364633   -0.382057
 ---------------------------------------------------------------------

 SCF Done:  E(UB3LYP) =  -820.156970168     A.U. after   29 cycles

 The electronic state is 2-A.
 Alpha  occ. eigenvalues --  -88.66363 -19.02237 -14.22624 -14.19248 -10.11601
 Alpha  occ. eigenvalues --  -10.11315 -10.10973 -10.10376 -10.09326 -10.06166
 Alpha  occ. eigenvalues --   -7.75123  -5.71468  -5.71032  -5.70668  -0.93516
 Alpha  occ. eigenvalues --   -0.83923  -0.78328  -0.67859  -0.64234  -0.61022
 Alpha  occ. eigenvalues --   -0.57020  -0.52193  -0.49574  -0.46506  -0.40874
 Alpha  occ. eigenvalues --   -0.39397  -0.38818  -0.37562  -0.34960  -0.34266
 Alpha  occ. eigenvalues --   -0.32410  -0.31519  -0.29786  -0.28767  -0.28571
 Alpha  occ. eigenvalues --   -0.27661  -0.25484  -0.22998  -0.22169  -0.21508
 Alpha  occ. eigenvalues --   -0.15934  -0.14620  -0.10598  -0.08653   0.04522
 Alpha virt. eigenvalues --    0.06541   0.07119   0.08490   0.09086   0.09907
 Alpha virt. eigenvalues --    0.10313   0.11183   0.11676   0.12453   0.13175
 Alpha virt. eigenvalues --    0.13671   0.14100   0.14663   0.15412   0.15840

  Beta  occ. eigenvalues --  -88.66347 -19.02225 -14.22570 -14.19223 -10.11270
  Beta  occ. eigenvalues --  -10.11168 -10.10966 -10.10365 -10.09314 -10.06179
  Beta  occ. eigenvalues --   -7.75108  -5.71474  -5.70966  -5.70660  -0.93498
  Beta  occ. eigenvalues --   -0.83648  -0.78289  -0.67572  -0.64052  -0.60953
  Beta  occ. eigenvalues --   -0.56875  -0.52118  -0.49508  -0.46303  -0.40806
  Beta  occ. eigenvalues --   -0.39316  -0.38742  -0.37467  -0.34785  -0.33993
  Beta  occ. eigenvalues --   -0.32222  -0.31195  -0.29728  -0.28693  -0.28529
  Beta  occ. eigenvalues --   -0.27597  -0.25403  -0.22621  -0.22070  -0.20886
  Beta  occ. eigenvalues --   -0.15811  -0.14586  -0.10067  -0.08598
  Beta virt. eigenvalues --    0.06903   0.07794   0.08717   0.09065   0.09647
  Beta virt. eigenvalues --    0.10375   0.10752   0.11561   0.12094   0.12632
  Beta virt. eigenvalues --    0.13290   0.13955   0.14245   0.14754   0.15386

 Mulliken charges and spin densities:
               1          2
     1  C   -0.000574  -0.614922
     2  C    0.141630   0.401970
     3  S   -0.814013   0.062010
     4  N   -0.018577   0.025668
     5  C    0.125914  -0.324983
     6  C    0.532657  -0.736846
     7  O   -0.170797   0.050031
     8  C   -0.595642   0.257905
     9  C    0.778642  -1.150492
    10  N   -0.428508   0.079328
    11  H    0.152637  -0.010626
    12  H    0.128705   0.024714
    13  H   -0.364538   0.537592
    14  H    0.235161   0.021235
    15  H   -0.005980   0.191873
    16  H   -0.306881   0.438664
    17  H   -0.884569   1.067834
    18  H    0.215409  -0.100760
    19  H   -0.082093   0.235438
    20  H    0.357853  -0.187699
    21  H   -0.051929   0.211569
    22  H   -0.021006   0.134435
    23  H   -0.039970   0.267107
    24  H    0.116470   0.118955
 Sum of Mulliken charges =  -1.00000   1.00000

 Dipole moment (field-independent basis, Debye):
    X=             -0.3951    Y=             -0.9680    Z=             -1.6702  Tot=              1.9705
 Quadrupole moment (field-independent basis, Debye-Ang):
   XX=           -126.6565   YY=           -116.8449   ZZ=            -91.6879
   XY=            -11.6071   XZ=             -1.5424   YZ=             -4.5242

 Summary of Natural Population Analysis:

                                       Natural Population
                Natural  -----------------------------------------------
    Atom  No    Charge         Core      Valence    Rydberg      Total
 -----------------------------------------------------------------------
      C    1   -0.32340      0.99960     2.31762    0.00618     3.32340
      C    2    0.13158      0.99965     1.84969    0.01907     2.86842
      S    3   -0.14060      4.99955     3.12658    0.01447     8.14060
      N    4   -0.29962      0.99963     2.78828    0.01171     3.79962
      C    5   -0.09929      0.99961     2.08736    0.01233     3.09929
      C    6   -0.01149      0.99958     1.99873    0.01318     3.01149
      O    7   -0.31391      0.99988     3.30349    0.01053     4.31391
      C    8   -0.01463      0.99957     2.00481    0.01024     3.01463
      C    9   -0.09677      0.99964     2.08682    0.01031     3.09677
      N   10   -0.42427      0.99977     2.91422    0.01028     3.92427
      H   11    0.11189      0.00000     0.38720    0.00091     0.38811
      H   12    0.10376      0.00000     0.39529    0.00095     0.39624
      H   13    0.11132      0.00000     0.38661    0.00206     0.38868
      H   14    0.19400      0.00000     0.30302    0.00298     0.30600
      H   15    0.09748      0.00000     0.40138    0.00115     0.40252
      H   16    0.10204      0.00000     0.39619    0.00177     0.39796
      H   17    0.09179      0.00000     0.40386    0.00435     0.40821
      H   18    0.08298      0.00000     0.41482    0.00220     0.41702
      H   19    0.08127      0.00000     0.41712    0.00161     0.41873
      H   20    0.09367      0.00000     0.40481    0.00153     0.40633
      H   21    0.09072      0.00000     0.40780    0.00148     0.40928
      H   22    0.08006      0.00000     0.41772    0.00222     0.41994
      H   23    0.17224      0.00000     0.32597    0.00180     0.32776
      H   24    0.17918      0.00000     0.31842    0.00240     0.32082
 =======================================================================
   * Total *   -0.00000     13.99648    29.85780    0.14571    44.00000

 Normal termination of Gaussian 16 at Tue Dec  8 14:12:03 2020.
