 Gaussian 16, Revision A.03,

 -----------------------------------------------------------
 # opt freq B3LYP/6-31G(d) empiricaldispersion=gd3bj scf=xqc
 -----------------------------------------------------------

 -------------------------------
 CID_114995293_JID_1259_neutraal
 -------------------------------
 Symbolic Z-matrix:
 Charge =  0 Multiplicity = 1

 SCF Done:  E(RB3LYP) =  -843.305413251     A.U. after   14 cycles
 SCF Done:  E(RB3LYP) =  -843.308276809     A.U. after   12 cycles
 SCF Done:  E(RB3LYP) =  -843.307836465     A.U. after   12 cycles
 SCF Done:  E(RB3LYP) =  -843.308995780     A.U. after   12 cycles
 SCF Done:  E(RB3LYP) =  -843.309181968     A.U. after   12 cycles
 SCF Done:  E(RB3LYP) =  -843.309320078     A.U. after   11 cycles
 SCF Done:  E(RB3LYP) =  -843.309385357     A.U. after   12 cycles
 SCF Done:  E(RB3LYP) =  -843.309432916     A.U. after   11 cycles
 SCF Done:  E(RB3LYP) =  -843.309448386     A.U. after   10 cycles
 SCF Done:  E(RB3LYP) =  -843.309450610     A.U. after    9 cycles
 SCF Done:  E(RB3LYP) =  -843.309451283     A.U. after    8 cycles
 SCF Done:  E(RB3LYP) =  -843.309452091     A.U. after    9 cycles
 SCF Done:  E(RB3LYP) =  -843.309452417     A.U. after    9 cycles
 SCF Done:  E(RB3LYP) =  -843.309452510     A.U. after    8 cycles
 SCF Done:  E(RB3LYP) =  -843.309452520     A.U. after    7 cycles
 Optimization completed.
    -- Stationary point found.
 Normal termination of Gaussian 16 at Tue Dec  8 19:36:22 2020.

 --------------------------------------------------------------------
 #N Geom=AllCheck Guess=TCheck SCRF=Check GenChk RB3LYP/6-31G(d) Freq
 --------------------------------------------------------------------

 Structure from the checkpoint file:  "JID_1259.chk"
 -------------------------------
 CID_114995293_JID_1259_neutraal
 -------------------------------
 Charge =  0 Multiplicity = 1

 SCF Done:  E(RB3LYP) =  -843.309452520     A.U. after    1 cycles

  Exact polarizability: 150.162  -3.302 105.533  -4.363  -1.845  84.691
 Approx polarizability: 205.308 -14.542 147.453 -10.225   0.653 127.564

                      1                      2                      3
                      A                      A                      A
 Frequencies --     17.7099                31.5503                48.1405
 Red. masses --      3.7331                 5.8864                 3.2266
 Frc consts  --      0.0007                 0.0035                 0.0044
 IR Inten    --      1.1048                 2.1165                 0.6471

                      4                      5                      6
                      A                      A                      A
 Frequencies --     83.0785               106.9094               122.4797
 Red. masses --      3.7091                 2.7721                 2.3510
 Frc consts  --      0.0151                 0.0187                 0.0208
 IR Inten    --      0.4277                 2.1723                 0.6949

                      7                      8                      9
                      A                      A                      A
 Frequencies --    197.8076               217.0065               251.2078
 Red. masses --      1.5422                 1.6324                 1.6013
 Frc consts  --      0.0356                 0.0453                 0.0595
 IR Inten    --      1.0769                 3.6088                 5.0027

                     10                     11                     12
                      A                      A                      A
 Frequencies --    281.6143               289.9256               307.3554
 Red. masses --      2.7819                 1.5193                 4.6237
 Frc consts  --      0.1300                 0.0752                 0.2574
 IR Inten    --      0.4834                 6.3143                 1.0751

                     13                     14                     15
                      A                      A                      A
 Frequencies --    325.2997               392.0708               435.0535
 Red. masses --      2.8212                 2.2747                 2.6747
 Frc consts  --      0.1759                 0.2060                 0.2983
 IR Inten    --      8.9415                 0.8464                 2.9446

                     16                     17                     18
                      A                      A                      A
 Frequencies --    471.6947               480.3264               503.9030
 Red. masses --      1.6759                 3.0280                 1.4095
 Frc consts  --      0.2197                 0.4116                 0.2109
 IR Inten    --     46.4244                 9.5598               155.4379

                     19                     20                     21
                      A                      A                      A
 Frequencies --    537.2883               606.8319               708.9302
 Red. masses --      2.4516                 4.7709                 1.0412
 Frc consts  --      0.4170                 1.0351                 0.3083
 IR Inten    --      8.5162                 9.6772                 5.6478

                     22                     23                     24
                      A                      A                      A
 Frequencies --    751.1370               796.5839               824.8127
 Red. masses --      1.2330                 3.6397                 2.0867
 Frc consts  --      0.4099                 1.3608                 0.8364
 IR Inten    --      7.1774                 4.1181                 0.5310

                     25                     26                     27
                      A                      A                      A
 Frequencies --    843.0710               894.8726               919.0612
 Red. masses --      2.4497                 1.6961                 1.6482
 Frc consts  --      1.0259                 0.8003                 0.8203
 IR Inten    --      3.2467                10.4446                 1.9658

                     28                     29                     30
                      A                      A                      A
 Frequencies --    944.7448               980.2313              1000.9541
 Red. masses --      1.8792                 1.9424                 1.4607
 Frc consts  --      0.9882                 1.0996                 0.8622
 IR Inten    --      4.8563                 2.3192                 6.3963

                     31                     32                     33
                      A                      A                      A
 Frequencies --   1017.6621              1054.5629              1087.0384
 Red. masses --      2.0356                 1.8418                 2.2626
 Frc consts  --      1.2421                 1.2068                 1.5752
 IR Inten    --     13.1420                47.4403                12.5813

                     34                     35                     36
                      A                      A                      A
 Frequencies --   1119.0997              1126.7137              1153.9845
 Red. masses --      2.9077                 2.0574                 1.9197
 Frc consts  --      2.1455                 1.5389                 1.5062
 IR Inten    --     72.7650                 3.8653                 8.0565

                     37                     38                     39
                      A                      A                      A
 Frequencies --   1160.2648              1173.0343              1249.6641
 Red. masses --      2.2860                 1.9746                 1.3847
 Frc consts  --      1.8132                 1.6009                 1.2741
 IR Inten    --     96.8491                12.0294                26.6021

                     40                     41                     42
                      A                      A                      A
 Frequencies --   1267.9236              1292.6820              1301.4943
 Red. masses --      1.1794                 1.3004                 1.4134
 Frc consts  --      1.1171                 1.2803                 1.4106
 IR Inten    --      1.8144                 4.1542                67.6170

                     43                     44                     45
                      A                      A                      A
 Frequencies --   1338.8416              1362.1508              1381.3158
 Red. masses --      1.1193                 1.9522                 1.2382
 Frc consts  --      1.1821                 2.1341                 1.3919
 IR Inten    --      0.8842                11.4730                55.9673

                     46                     47                     48
                      A                      A                      A
 Frequencies --   1398.3411              1403.7937              1409.4608
 Red. masses --      1.3645                 1.6019                 1.4702
 Frc consts  --      1.5720                 1.8599                 1.7208
 IR Inten    --      8.3572                24.5565                 2.8105

                     49                     50                     51
                      A                      A                      A
 Frequencies --   1436.9490              1443.2903              1447.8806
 Red. masses --      1.2889                 1.2971                 1.7178
 Frc consts  --      1.5680                 1.5919                 2.1217
 IR Inten    --     18.4018                45.8839               137.7822

                     52                     53                     54
                      A                      A                      A
 Frequencies --   1459.4334              1493.5285              1507.0151
 Red. masses --      1.7699                 1.0959                 1.0870
 Frc consts  --      2.2211                 1.4403                 1.4545
 IR Inten    --     88.4584                 9.9957                 2.7890

                     55                     56                     57
                      A                      A                      A
 Frequencies --   1520.0668              1521.9753              1525.3929
 Red. masses --      1.0681                 1.0593                 1.0486
 Frc consts  --      1.4540                 1.4458                 1.4375
 IR Inten    --      0.7013                 5.1732                 3.3076

                     58                     59                     60
                      A                      A                      A
 Frequencies --   1531.3384              1537.9994              1557.8367
 Red. masses --      1.0545                 1.0639                 1.0785
 Frc consts  --      1.4569                 1.4828                 1.5422
 IR Inten    --      5.7896                 5.8888                 3.7453

                     61                     62                     63
                      A                      A                      A
 Frequencies --   1653.9686              3003.4557              3013.4492
 Red. masses --      1.3032                 1.0663                 1.0819
 Frc consts  --      2.1005                 5.6674                 5.7887
 IR Inten    --    130.0407                19.1291                37.8448

                     64                     65                     66
                      A                      A                      A
 Frequencies --   3034.4537              3045.6607              3049.5278
 Red. masses --      1.0615                 1.0411                 1.0693
 Frc consts  --      5.7586                 5.6896                 5.8591
 IR Inten    --     25.0566                14.7012                18.8368

                     67                     68                     69
                      A                      A                      A
 Frequencies --   3052.0974              3053.4715              3060.5484
 Red. masses --      1.0751                 1.0724                 1.0463
 Frc consts  --      5.9008                 5.8909                 5.7743
 IR Inten    --     30.4768                13.5187                27.3410

                     70                     71                     72
                      A                      A                      A
 Frequencies --   3074.5790              3091.8449              3114.1294
 Red. masses --      1.1017                 1.0986                 1.1009
 Frc consts  --      6.1359                 6.1879                 6.2902
 IR Inten    --     58.2533                19.3796                52.3026

                     73                     74                     75
                      A                      A                      A
 Frequencies --   3120.1168              3131.2723              3132.2047
 Red. masses --      1.1023                 1.1020                 1.1030
 Frc consts  --      6.3223                 6.3664                 6.3755
 IR Inten    --     58.3520                28.4260                19.5062

                     76                     77                     78
                      A                      A                      A
 Frequencies --   3159.3807              3514.5419              3672.5003
 Red. masses --      1.0936                 1.0488                 1.1014
 Frc consts  --      6.4314                 7.6331                 8.7523
 IR Inten    --      5.3077               202.8537                93.6636

 - Thermochemistry -
 -------------------
 Temperature   298.150 Kelvin.  Pressure   1.00000 Atm.
 Atom     1 has atomic number  6 and mass  12.00000

 Molecular mass:   175.10309 amu.
 Principal axes and moments of inertia in atomic units:
                           1         2         3
     Eigenvalues --   955.163824496.420325064.43460
           X            0.99999  -0.00433  -0.00133
           Y            0.00432   0.99997  -0.00571
           Z            0.00136   0.00571   0.99998
 This molecule is an asymmetric top.
 Rotational symmetry number  1.
 Warning -- assumption of classical behavior for rotation
           may cause significant error
 Rotational temperatures (Kelvin)      0.09068     0.01926     0.01710
 Rotational constants (GHZ):           1.88946     0.40137     0.35636
 Zero-point vibrational energy     655730.6 (Joules/Mol)
                                  156.72337 (Kcal/Mol)
 Warning -- explicit consideration of  20 degrees of freedom as
           vibrations may cause significant error
 Vibrational temperatures:     25.48    45.39    69.26   119.53   153.82
          (Kelvin)            176.22   284.60   312.22   361.43   405.18
                              417.14   442.22   468.03   564.10   625.94
                              678.66   691.08   725.00   773.04   873.10
                             1019.99  1080.72  1146.11  1186.72  1212.99
                             1287.52  1322.32  1359.28  1410.33  1440.15
                             1464.19  1517.28  1564.01  1610.13  1621.09
                             1660.33  1669.36  1687.73  1797.99  1824.26
                             1859.88  1872.56  1926.29  1959.83  1987.41
                             2011.90  2019.75  2027.90  2067.45  2076.57
                             2083.18  2099.80  2148.85  2168.26  2187.04
                             2189.78  2194.70  2203.25  2212.84  2241.38
                             2379.69  4321.30  4335.68  4365.90  4382.03
                             4387.59  4391.29  4393.26  4403.45  4423.63
                             4448.48  4480.54  4489.15  4505.20  4506.54
                             4545.64  5056.64  5283.91

 Zero-point correction=                           0.249755 (Hartree/Particle)
 Thermal correction to Energy=                    0.263303
 Thermal correction to Enthalpy=                  0.264248
 Thermal correction to Gibbs Free Energy=         0.207436
 Sum of electronic and zero-point Energies=           -843.059698
 Sum of electronic and thermal Energies=              -843.046149
 Sum of electronic and thermal Enthalpies=            -843.045205
 Sum of electronic and thermal Free Energies=         -843.102016

                     E (Thermal)             CV                S
                      KCal/Mol        Cal/Mol-Kelvin    Cal/Mol-Kelvin
 Total                  165.225             48.814            119.569
 Electronic               0.000              0.000              0.000
 Translational            0.889              2.981             41.388
 Rotational               0.889              2.981             31.454
 Vibrational            163.448             42.852             46.728
 Vibration     1          0.593              1.986              6.876
 Vibration     2          0.594              1.983              5.729
 Vibration     3          0.595              1.978              4.892
 Vibration     4          0.600              1.961              3.817
 Vibration     5          0.606              1.944              3.324
 Vibration     6          0.610              1.930              3.061
 Vibration     7          0.637              1.843              2.153
 Vibration     8          0.646              1.815              1.984
 Vibration     9          0.663              1.761              1.722
 Vibration    10          0.681              1.708              1.524
 Vibration    11          0.686              1.692              1.474
 Vibration    12          0.697              1.660              1.377
 Vibration    13          0.709              1.625              1.283
 Vibration    14          0.760              1.487              0.992
 Vibration    15          0.796              1.394              0.842
 Vibration    16          0.829              1.313              0.733
 Vibration    17          0.837              1.294              0.709
 Vibration    18          0.859              1.241              0.648
 Vibration    19          0.892              1.168              0.571
 Vibration    20          0.966              1.017              0.438

 Optimization completed.
    -- Stationary point found.
 Normal termination of Gaussian 16 at Tue Dec  8 19:41:52 2020.

 ----------------------------------------------------------------------
 # B3LYP/6-311++G(d,p) empiricaldispersion=gd3bj scf=xqc pop=npa geom=c
 heck
 ----------------------------------------------------------------------

 ---------------------------------------
 CID_114995293_JID_1259_Energie_neutraal
 ---------------------------------------
 Structure from the checkpoint file:  "JID_1259.chk"
 Charge =  0 Multiplicity = 1

 SCF Done:  E(RB3LYP) =  -843.469789692     A.U. after   14 cycles
 Normal termination of Gaussian 16 at Tue Dec  8 19:44:03 2020.

 ----------------------------------------------------------------------
 # B3LYP/6-311++G(d,p) empiricaldispersion=gd3bj scf=xqc pop=npa geom=c
 heck
 ----------------------------------------------------------------------

 -------------------------------------
 CID_114995293_JID_1259_Energie_kation
 -------------------------------------
 Structure from the checkpoint file:  "JID_1259.chk"
 Charge =  1 Multiplicity = 2

 SCF Done:  E(UB3LYP) =  -843.175633579     A.U. after   21 cycles
 Normal termination of Gaussian 16 at Tue Dec  8 19:48:47 2020.
 Gaussian 16:  ES64L-G16RevA.03 25-Dec-2016

 ----------------------------------------------------------------------
 # B3LYP/6-311++G(d,p) empiricaldispersion=gd3bj scf=xqc pop=npa geom=c
 heck
 ----------------------------------------------------------------------

 ------------------------------------
 CID_114995293_JID_1259_Energie_anion
 ------------------------------------
 Structure from the checkpoint file:  "JID_1259.chk"
 Charge = -1 Multiplicity = 2

                         Standard orientation:
 ---------------------------------------------------------------------
 Center     Atomic      Atomic             Coordinates (Angstroms)
 Number     Number       Type             X           Y           Z
 ---------------------------------------------------------------------
      1          6           0        4.150303    0.380042   -0.521704
      2          6           0        3.319987   -0.894033   -0.700309
      3          6           0        2.560086   -1.325399    0.562590
      4          6           0        1.576579   -0.283624    1.078649
      5          8           0        0.655453    0.021256    0.034990
      6          6           0       -0.288603    1.056777    0.351031
      7          6           0        0.339665    2.435483    0.158010
      8          6           0       -1.502389    0.865478   -0.569104
      9          6           0       -2.337737   -0.364672   -0.257751
     10         16           0       -3.976415   -0.287371    0.028311
     11          7           0       -1.640902   -1.513082   -0.250435
     12          1           0        4.849065    0.287458    0.319232
     13          1           0        3.513533    1.251711   -0.334511
     14          1           0        4.738081    0.592903   -1.421071
     15          1           0        2.599700   -0.747833   -1.512928
     16          1           0        3.976708   -1.718046   -1.006443
     17          1           0        2.015657   -2.257536    0.360331
     18          1           0        3.269388   -1.545832    1.372057
     19          1           0        1.030272   -0.664090    1.956024
     20          1           0        2.108686    0.624432    1.391445
     21          1           0       -0.609133    0.934538    1.396978
     22          1           0        0.632301    2.571981   -0.888554
     23          1           0       -0.371256    3.223070    0.428496
     24          1           0        1.230024    2.559448    0.782278
     25          1           0       -2.149614    1.740313   -0.504123
     26          1           0       -1.132680    0.795932   -1.601549
     27          1           0       -0.627886   -1.475493   -0.312719
     28          1           0       -2.114851   -2.373804   -0.013272
 ---------------------------------------------------------------------

 SCF Done:  E(UB3LYP) =  -843.460522322     A.U. after   33 cycles
 SCF Done:  E(UB3LYP) =  -843.460522322     a.u. after    1 cycles

 The electronic state is 2-A.
 Alpha  occ. eigenvalues --  -88.67543 -19.03441 -14.22678 -10.13433 -10.12958
 Alpha  occ. eigenvalues --  -10.11641 -10.07760 -10.07175 -10.06785 -10.06554
 Alpha  occ. eigenvalues --  -10.05679  -7.76303  -5.72646  -5.72220  -5.71834
 Alpha  occ. eigenvalues --   -0.94588  -0.83083  -0.71219  -0.68397  -0.63801
 Alpha  occ. eigenvalues --   -0.61780  -0.58874  -0.54465  -0.50268  -0.47175
 Alpha  occ. eigenvalues --   -0.47053  -0.43092  -0.41297  -0.38057  -0.37628
 Alpha  occ. eigenvalues --   -0.34873  -0.34429  -0.32162  -0.30991  -0.30257
 Alpha  occ. eigenvalues --   -0.29811  -0.28936  -0.28680  -0.26481  -0.25304
 Alpha  occ. eigenvalues --   -0.24275  -0.23651  -0.23299  -0.22664  -0.21747
 Alpha  occ. eigenvalues --   -0.17244  -0.11962  -0.09668   0.04398
 Alpha virt. eigenvalues --    0.06060   0.07165   0.07529   0.08134   0.09348
 Alpha virt. eigenvalues --    0.10056   0.10351   0.10502   0.10952   0.12440
 Alpha virt. eigenvalues --    0.12629   0.12972   0.13112   0.13657   0.14005

  Beta  occ. eigenvalues --  -88.67536 -19.03438 -14.22627 -10.13408 -10.12604
  Beta  occ. eigenvalues --  -10.11614 -10.07785 -10.07156 -10.06759 -10.06544
  Beta  occ. eigenvalues --  -10.05639  -7.76297  -5.72655  -5.72185  -5.71831
  Beta  occ. eigenvalues --   -0.94577  -0.82809  -0.71164  -0.68327  -0.63545
  Beta  occ. eigenvalues --   -0.61726  -0.58777  -0.54393  -0.50192  -0.46985
  Beta  occ. eigenvalues --   -0.46952  -0.43020  -0.41236  -0.38001  -0.37531
  Beta  occ. eigenvalues --   -0.34817  -0.34311  -0.31953  -0.30950  -0.30223
  Beta  occ. eigenvalues --   -0.29695  -0.28794  -0.28564  -0.26412  -0.25035
  Beta  occ. eigenvalues --   -0.24035  -0.23411  -0.23216  -0.22536  -0.21643
  Beta  occ. eigenvalues --   -0.17217  -0.11528  -0.09641
  Beta virt. eigenvalues --    0.06742   0.07698   0.07893   0.08069   0.09112
  Beta virt. eigenvalues --    0.09655   0.10300   0.10731   0.10801   0.11457
  Beta virt. eigenvalues --    0.12584   0.12793   0.13198   0.13338   0.13758

 Mulliken charges and spin densities:
               1          2
     1  C    1.244960  -1.796781
     2  C   -1.039135   0.944188
     3  C    0.876012  -1.176729
     4  C    0.116086  -0.439482
     5  O   -0.033410   0.014529
     6  C   -0.516435   0.452366
     7  C    0.327509  -0.850901
     8  C   -0.273639  -0.100360
     9  C    0.305154   0.215596
    10  S   -0.912067   0.104689
    11  N   -0.272200   0.061220
    12  H   -0.387065   0.530462
    13  H   -0.015267   0.150399
    14  H   -0.210160   0.342238
    15  H    0.130251  -0.010266
    16  H   -0.169638   0.323876
    17  H   -0.243219   0.386958
    18  H   -0.411137   0.568652
    19  H   -0.414976   0.583092
    20  H   -0.026697   0.160604
    21  H    0.115635   0.017844
    22  H    0.121006   0.034288
    23  H    0.036135   0.099788
    24  H   -0.267765   0.409407
    25  H    0.140955  -0.001250
    26  H    0.174606   0.007957
    27  H    0.439588  -0.117398
    28  H    0.164914   0.085012
 Sum of Mulliken charges =  -1.00000   1.00000

 Dipole moment (field-independent basis, Debye):
    X=             -1.7552    Y=              1.0854    Z=             -3.1405  Tot=              3.7579
 Quadrupole moment (field-independent basis, Debye-Ang):
   XX=           -180.4471   YY=           -105.7977   ZZ=           -105.0128
   XY=             -1.0588   XZ=             -4.9844   YZ=              2.4088

 Summary of Natural Population Analysis:

                                       Natural Population
                Natural  -----------------------------------------------
    Atom  No    Charge         Core      Valence    Rydberg      Total
 -----------------------------------------------------------------------
      C    1   -0.28761      0.99967     2.28266    0.00529     3.28761
      C    2   -0.19161      0.99964     2.18309    0.00888     3.19161
      C    3   -0.19727      0.99962     2.18750    0.01015     3.19727
      C    4   -0.00940      0.99957     1.99750    0.01233     3.00940
      O    5   -0.31927      0.99987     3.30913    0.01026     4.31927
      C    6    0.07187      0.99956     1.91693    0.01164     2.92813
      C    7   -0.29601      0.99964     2.29054    0.00583     3.29601
      C    8   -0.22917      0.99954     2.22058    0.00905     3.22917
      C    9    0.11714      0.99966     1.86420    0.01900     2.88286
      S   10   -0.13898      4.99954     3.12510    0.01434     8.13898
      N   11   -0.37947      0.99966     2.86859    0.01122     3.87947
      H   12    0.09801      0.00000     0.40040    0.00159     0.40199
      H   13    0.09686      0.00000     0.40198    0.00116     0.40314
      H   14    0.09774      0.00000     0.40131    0.00095     0.40226
      H   15    0.09691      0.00000     0.40168    0.00141     0.40309
      H   16    0.09448      0.00000     0.40452    0.00100     0.40552
      H   17    0.09625      0.00000     0.40235    0.00139     0.40375
      H   18    0.10206      0.00000     0.39581    0.00213     0.39794
      H   19    0.08511      0.00000     0.41296    0.00193     0.41489
      H   20    0.08300      0.00000     0.41513    0.00187     0.41700
      H   21    0.08328      0.00000     0.41466    0.00206     0.41672
      H   22    0.09960      0.00000     0.39957    0.00083     0.40040
      H   23    0.10023      0.00000     0.39908    0.00069     0.39977
      H   24    0.10428      0.00000     0.39467    0.00105     0.39572
      H   25    0.11327      0.00000     0.38591    0.00081     0.38673
      H   26    0.10986      0.00000     0.38890    0.00124     0.39014
      H   27    0.20469      0.00000     0.29310    0.00221     0.29531
      H   28    0.19414      0.00000     0.30416    0.00170     0.30586
 =======================================================================
   * Total *    0.00000     14.99596    32.86203    0.14201    48.00000

 Normal termination of Gaussian 16 at Tue Dec  8 19:55:46 2020.
