 Gaussian 16, Revision A.03,

 -----------------------------------------------------------
 # opt freq B3LYP/6-31G(d) empiricaldispersion=gd3bj scf=xqc
 -----------------------------------------------------------

 -------------------------------
 CID_153724923_JID_8702_neutraal
 -------------------------------
 Symbolic Z-matrix:
 Charge =  0 Multiplicity = 1

 SCF Done:  E(RB3LYP) =  -778.423239474     A.U. after   15 cycles
 SCF Done:  E(RB3LYP) =  -778.438113264     A.U. after   14 cycles
 SCF Done:  E(RB3LYP) =  -778.443684582     A.U. after   14 cycles
 SCF Done:  E(RB3LYP) =  -778.446913559     A.U. after   15 cycles
 SCF Done:  E(RB3LYP) =  -778.447641088     A.U. after   12 cycles
 SCF Done:  E(RB3LYP) =  -778.447780607     A.U. after   11 cycles
 SCF Done:  E(RB3LYP) =  -778.447787461     A.U. after   10 cycles
 SCF Done:  E(RB3LYP) =  -778.447789861     A.U. after    8 cycles
 SCF Done:  E(RB3LYP) =  -778.447790142     A.U. after    8 cycles
 Optimization completed.
    -- Stationary point found.
 Normal termination of Gaussian 16 at Fri Dec 11 21:59:42 2020.

 --------------------------------------------------------------------
 #N Geom=AllCheck Guess=TCheck SCRF=Check GenChk RB3LYP/6-31G(d) Freq
 --------------------------------------------------------------------

 Structure from the checkpoint file:  "JID_8702.chk"
 -------------------------------
 CID_153724923_JID_8702_neutraal
 -------------------------------
 Charge =  0 Multiplicity = 1

 SCF Done:  E(RB3LYP) =  -778.447790142     A.U. after    1 cycles

  Exact polarizability: 346.980  11.590 165.221  -0.001   0.009  59.942
 Approx polarizability: 573.610  28.524 295.625   0.000   0.021  94.929

                      1                      2                      3
                      A                      A                      A
 Frequencies --     55.4223                64.3526               120.8090
 Red. masses --      6.3547                 4.7650                10.4737
 Frc consts  --      0.0115                 0.0116                 0.0901
 IR Inten    --      2.2997                 1.5544                 3.2826

                      4                      5                      6
                      A                      A                      A
 Frequencies --    125.6769               155.5663               158.3096
 Red. masses --      3.9723                 3.7566                 3.8247
 Frc consts  --      0.0370                 0.0536                 0.0565
 IR Inten    --      0.0209                 9.5595                 2.3274

                      7                      8                      9
                      A                      A                      A
 Frequencies --    164.1706               216.0953               261.8947
 Red. masses --      1.3389                 3.4543                 4.6693
 Frc consts  --      0.0213                 0.0950                 0.1887
 IR Inten    --      1.3136                 0.6713                 7.4552

                     10                     11                     12
                      A                      A                      A
 Frequencies --    274.4320               341.9107               352.1203
 Red. masses --      6.9522                 8.5033                 6.6255
 Frc consts  --      0.3085                 0.5857                 0.4840
 IR Inten    --      2.3277                 0.2160                 1.8732

                     13                     14                     15
                      A                      A                      A
 Frequencies --    397.2456               419.4338               437.0690
 Red. masses --      4.1250                 8.2074                 5.1444
 Frc consts  --      0.3835                 0.8507                 0.5790
 IR Inten    --      0.3751                 7.7731                 0.9035

                     16                     17                     18
                      A                      A                      A
 Frequencies --    482.4722               484.5252               491.3843
 Red. masses --      3.3338                 7.0221                 3.3652
 Frc consts  --      0.4572                 0.9713                 0.4787
 IR Inten    --      0.0833                 6.3023                 3.6464

                     19                     20                     21
                      A                      A                      A
 Frequencies --    544.3739               559.8012               573.2662
 Red. masses --      6.7844                 4.3903                 7.6987
 Frc consts  --      1.1846                 0.8106                 1.4907
 IR Inten    --      1.2442                 0.0191                 3.4442

                     22                     23                     24
                      A                      A                      A
 Frequencies --    609.1884               630.4362               677.2553
 Red. masses --      7.4902                 8.2993                 6.1898
 Frc consts  --      1.6377                 1.9435                 1.6728
 IR Inten    --     21.5790                 1.0255                 0.9034

                     25                     26                     27
                      A                      A                      A
 Frequencies --    732.0702               736.0213               763.0059
 Red. masses --      7.8919                 9.7042                 2.5809
 Frc consts  --      2.4919                 3.0974                 0.8853
 IR Inten    --      3.8739                 2.2468                28.0108

                     28                     29                     30
                      A                      A                      A
 Frequencies --    767.4097               773.6484               799.3492
 Red. masses --      6.2354                 1.7875                 4.5207
 Frc consts  --      2.1635                 0.6303                 1.7019
 IR Inten    --      0.8507                14.9516                11.3346

                     31                     32                     33
                      A                      A                      A
 Frequencies --    814.2334               879.9076               913.3723
 Red. masses --      6.2080                 1.5120                 1.4301
 Frc consts  --      2.4249                 0.6897                 0.7029
 IR Inten    --      0.6566                 4.3962                 1.1659

                     34                     35                     36
                      A                      A                      A
 Frequencies --    913.5602               953.8594               954.5395
 Red. masses --      4.3977                 6.3793                 1.4386
 Frc consts  --      2.1625                 3.4197                 0.7723
 IR Inten    --      4.7966                 4.7737                21.8988

                     37                     38                     39
                      A                      A                      A
 Frequencies --    971.3238              1004.4523              1039.6595
 Red. masses --      1.3539                 1.2903                 2.2347
 Frc consts  --      0.7526                 0.7670                 1.4231
 IR Inten    --      7.1302                 0.1742                 1.8689

                     40                     41                     42
                      A                      A                      A
 Frequencies --   1042.2409              1158.4030              1177.0833
 Red. masses --      8.1025                 1.7438                 2.3903
 Frc consts  --      5.1857                 1.3787                 1.9512
 IR Inten    --     58.1325                 7.5939                28.5645

                     43                     44                     45
                      A                      A                      A
 Frequencies --   1183.8044              1185.1412              1209.1186
 Red. masses --      1.2508                 1.2683                 1.4530
 Frc consts  --      1.0328                 1.0496                 1.2516
 IR Inten    --      4.5098                 0.7648                21.7975

                     46                     47                     48
                      A                      A                      A
 Frequencies --   1223.0040              1258.5007              1291.1493
 Red. masses --      1.8129                 2.1435                 2.2104
 Frc consts  --      1.5977                 2.0002                 2.1711
 IR Inten    --     15.5862                 1.4008                68.3822

                     49                     50                     51
                      A                      A                      A
 Frequencies --   1312.4186              1346.9692              1352.9979
 Red. masses --      4.3791                 2.9772                 5.0647
 Frc consts  --      4.4441                 3.1825                 5.4626
 IR Inten    --     18.7445                53.2727               154.4948

                     52                     53                     54
                      A                      A                      A
 Frequencies --   1383.7793              1418.3649              1438.6257
 Red. masses --      2.4609                 3.3272                 4.9196
 Frc consts  --      2.7764                 3.9437                 5.9989
 IR Inten    --      0.0899                 0.3256                85.3322

                     55                     56                     57
                      A                      A                      A
 Frequencies --   1453.3752              1499.4426              1508.3442
 Red. masses --      3.0094                 1.9980                 1.0477
 Frc consts  --      3.7453                 2.6467                 1.4044
 IR Inten    --    276.0030                35.7630                 6.8071

                     58                     59                     60
                      A                      A                      A
 Frequencies --   1516.3849              1523.6349              1528.0127
 Red. masses --      2.5955                 1.1528                 2.7261
 Frc consts  --      3.5163                 1.5768                 3.7502
 IR Inten    --     46.9085                 1.7504                68.1903

                     61                     62                     63
                      A                      A                      A
 Frequencies --   1576.7673              1598.4550              1651.8424
 Red. masses --      5.8809                 7.4800                 6.6600
 Frc consts  --      8.6145                11.2603                10.7068
 IR Inten    --      0.0461                84.1781                57.0247

                     64                     65                     66
                      A                      A                      A
 Frequencies --   1666.5016              1691.8730              2351.8194
 Red. masses --      6.5473                 6.5501                12.6756
 Frc consts  --     10.7133                11.0467                41.3074
 IR Inten    --    398.9675                61.3737                38.5106

                     67                     68                     69
                      A                      A                      A
 Frequencies --   3078.5628              3154.6654              3179.9753
 Red. masses --      1.0291                 1.1075                 1.0909
 Frc consts  --      5.7466                 6.4939                 6.4995
 IR Inten    --     36.6783                17.2920                 5.8798

                     70                     71                     72
                      A                      A                      A
 Frequencies --   3185.5859              3188.9323              3197.0678
 Red. masses --      1.0873                 1.1076                 1.0893
 Frc consts  --      6.5010                 6.6365                 6.5602
 IR Inten    --      6.0275                20.1615                11.4912

                     73                     74                     75
                      A                      A                      A
 Frequencies --   3209.4234              3212.7827              3226.9067
 Red. masses --      1.0924                 1.0946                 1.0952
 Frc consts  --      6.6297                 6.6570                 6.7191
 IR Inten    --      4.2214                27.2251                13.2020

 - Thermochemistry -
 -------------------
 Temperature   298.150 Kelvin.  Pressure   1.00000 Atm.
 Atom     1 has atomic number  6 and mass  12.00000

 Molecular mass:   235.07456 amu.
 Principal axes and moments of inertia in atomic units:
                           1         2         3
     Eigenvalues --  1625.726337661.983839276.33520
           X            0.99985  -0.01717   0.00000
           Y            0.01717   0.99985   0.00000
           Z           -0.00000  -0.00000   1.00000
 This molecule is an asymmetric top.
 Rotational symmetry number  1.
 Warning -- assumption of classical behavior for rotation
           may cause significant error
 Rotational temperatures (Kelvin)      0.05328     0.01130     0.00934
 Rotational constants (GHZ):           1.11011     0.23554     0.19455
 Zero-point vibrational energy     531115.5 (Joules/Mol)
                                  126.93966 (Kcal/Mol)
 Warning -- explicit consideration of  22 degrees of freedom as
           vibrations may cause significant error
 Vibrational temperatures:     79.74    92.59   173.82   180.82   223.83
          (Kelvin)            227.77   236.20   310.91   376.81   394.85
                              491.93   506.62   571.55   603.47   628.84
                              694.17   697.12   706.99   783.23   805.43
                              824.80   876.49   907.06   974.42  1053.29
                             1058.97  1097.80  1104.13  1113.11  1150.09
                             1171.50  1265.99  1314.14  1314.41  1372.39
                             1373.37  1397.52  1445.18  1495.84  1499.55
                             1666.68  1693.56  1703.23  1705.15  1739.65
                             1759.63  1810.70  1857.68  1888.28  1937.99
                             1946.66  1990.95  2040.71  2069.86  2091.08
                             2157.36  2170.17  2181.74  2192.17  2198.47
                             2268.62  2299.82  2376.63  2397.72  2434.23
                             3383.74  4429.37  4538.86  4575.28  4583.35
                             4588.16  4599.87  4617.64  4622.48  4642.80

 Zero-point correction=                           0.202291 (Hartree/Particle)
 Thermal correction to Energy=                    0.215989
 Thermal correction to Enthalpy=                  0.216933
 Thermal correction to Gibbs Free Energy=         0.161642
 Sum of electronic and zero-point Energies=           -778.245499
 Sum of electronic and thermal Energies=              -778.231801
 Sum of electronic and thermal Enthalpies=            -778.230857
 Sum of electronic and thermal Free Energies=         -778.286149

                     E (Thermal)             CV                S
                      KCal/Mol        Cal/Mol-Kelvin    Cal/Mol-Kelvin
 Total                  135.535             53.936            116.371
 Electronic               0.000              0.000              0.000
 Translational            0.889              2.981             42.266
 Rotational               0.889              2.981             33.113
 Vibrational            133.758             47.974             40.992
 Vibration     1          0.596              1.975              4.614
 Vibration     2          0.597              1.971              4.319
 Vibration     3          0.609              1.932              3.087
 Vibration     4          0.611              1.927              3.011
 Vibration     5          0.620              1.896              2.603
 Vibration     6          0.621              1.893              2.570
 Vibration     7          0.623              1.886              2.501
 Vibration     8          0.645              1.817              1.992
 Vibration     9          0.669              1.743              1.649
 Vibration    10          0.677              1.721              1.568
 Vibration    11          0.721              1.592              1.203
 Vibration    12          0.729              1.571              1.157
 Vibration    13          0.764              1.476              0.973
 Vibration    14          0.782              1.428              0.894
 Vibration    15          0.797              1.389              0.836
 Vibration    16          0.839              1.289              0.703
 Vibration    17          0.841              1.284              0.698
 Vibration    18          0.847              1.269              0.680
 Vibration    19          0.900              1.152              0.556
 Vibration    20          0.915              1.118              0.524
 Vibration    21          0.930              1.089              0.498
 Vibration    22          0.968              1.012              0.434

                           ! Non-Optimized Parameters !
 Normal termination of Gaussian 16 at Fri Dec 11 22:09:58 2020.

 ----------------------------------------------------------------------
 # B3LYP/6-311++G(d,p) empiricaldispersion=gd3bj scf=xqc pop=npa geom=c
 heck
 ----------------------------------------------------------------------

 ---------------------------------------
 CID_153724923_JID_8702_Energie_neutraal
 ---------------------------------------
 Structure from the checkpoint file:  "JID_8702.chk"
 Charge =  0 Multiplicity = 1

 SCF Done:  E(RB3LYP) =  -778.643364192     A.U. after   16 cycles
 Normal termination of Gaussian 16 at Fri Dec 11 22:14:50 2020.

 ----------------------------------------------------------------------
 # B3LYP/6-311++G(d,p) empiricaldispersion=gd3bj scf=xqc pop=npa geom=c
 heck
 ----------------------------------------------------------------------

 -------------------------------------
 CID_153724923_JID_8702_Energie_kation
 -------------------------------------
 Structure from the checkpoint file:  "JID_8702.chk"
 Charge =  1 Multiplicity = 2

 SCF Done:  E(UB3LYP) =  -778.341745186     A.U. after   26 cycles
 Normal termination of Gaussian 16 at Fri Dec 11 22:26:14 2020.
 Gaussian 16:  ES64L-G16RevA.03 25-Dec-2016

 ----------------------------------------------------------------------
 # B3LYP/6-311++G(d,p) empiricaldispersion=gd3bj scf=xqc pop=npa geom=c
 heck
 ----------------------------------------------------------------------

 ------------------------------------
 CID_153724923_JID_8702_Energie_anion
 ------------------------------------
 Structure from the checkpoint file:  "JID_8702.chk"
 Charge = -1 Multiplicity = 2

                         Standard orientation:
 ---------------------------------------------------------------------
 Center     Atomic      Atomic             Coordinates (Angstroms)
 Number     Number       Type             X           Y           Z
 ---------------------------------------------------------------------
      1          6           0       -3.520255    2.588438   -0.000272
      2          8           0       -3.542363    1.152715   -0.000188
      3          6           0       -2.356718    0.533059   -0.000065
      4          7           0       -1.247369    1.210937    0.000094
      5          6           0       -0.052737    0.535224    0.000285
      6          7           0        1.052568    1.277326    0.000239
      7          6           0        2.247783    0.652925    0.000070
      8          6           0        3.427804    1.452718    0.000162
      9          6           0        4.668093    0.866660    0.000016
     10          6           0        4.808942   -0.550386   -0.000206
     11          6           0        3.699688   -1.355109   -0.000245
     12          6           0        2.394172   -0.783205   -0.000065
     13          6           0        1.223036   -1.546932   -0.000028
     14          6           0       -0.016852   -0.911302    0.000086
     15          6           0       -1.253216   -1.613919    0.000055
     16          6           0       -2.433577   -0.916424    0.000076
     17          6           0       -3.697653   -1.577417    0.000254
     18          7           0       -4.717714   -2.136286   -0.000053
     19          1           0       -4.568475    2.886676   -0.002000
     20          1           0       -3.004687    2.962405   -0.888287
     21          1           0       -3.007737    2.962491    0.889509
     22          1           0        3.299830    2.529849    0.000325
     23          1           0        5.559779    1.486964    0.000067
     24          1           0        5.802325   -0.988703   -0.000347
     25          1           0        3.795451   -2.437856   -0.000404
     26          1           0        1.278162   -2.633542   -0.000137
     27          1           0       -1.259202   -2.699819    0.000077
 ---------------------------------------------------------------------

 SCF Done:  E(UB3LYP) =  -778.701182964     A.U. after   22 cycles

 The electronic state is 2-A.
 Alpha  occ. eigenvalues --  -19.05217 -14.18083 -14.17543 -14.16244 -10.15283
 Alpha  occ. eigenvalues --  -10.12171 -10.11444 -10.08475 -10.08151 -10.07524
 Alpha  occ. eigenvalues --  -10.06187 -10.06128 -10.06085 -10.05815 -10.05567
 Alpha  occ. eigenvalues --  -10.05543 -10.04716 -10.04699  -0.97862  -0.84057
 Alpha  occ. eigenvalues --   -0.78838  -0.77959  -0.72479  -0.70650  -0.67413
 Alpha  occ. eigenvalues --   -0.64190  -0.62082  -0.60715  -0.54476  -0.52780
 Alpha  occ. eigenvalues --   -0.49269  -0.47935  -0.46344  -0.43382  -0.42111
 Alpha  occ. eigenvalues --   -0.39009  -0.38312  -0.37322  -0.35883  -0.33233
 Alpha  occ. eigenvalues --   -0.32768  -0.31599  -0.31093  -0.29674  -0.29375
 Alpha  occ. eigenvalues --   -0.28836  -0.27901  -0.25256  -0.24670  -0.24247
 Alpha  occ. eigenvalues --   -0.23993  -0.23420  -0.23350  -0.21258  -0.20397
 Alpha  occ. eigenvalues --   -0.18235  -0.15902  -0.15685  -0.12720  -0.12045
 Alpha  occ. eigenvalues --   -0.10532  -0.00381
 Alpha virt. eigenvalues --    0.07665   0.07982   0.08065   0.08990   0.09950
 Alpha virt. eigenvalues --    0.10316   0.10987   0.11734   0.11770   0.12269
 Alpha virt. eigenvalues --    0.12453   0.13163   0.13884   0.14102   0.14987

  Beta  occ. eigenvalues --  -19.05175 -14.17959 -14.17449 -14.16055 -10.15244
  Beta  occ. eigenvalues --  -10.12173 -10.11481 -10.08493 -10.08071 -10.07388
  Beta  occ. eigenvalues --  -10.06270 -10.06192 -10.05845 -10.05750 -10.05396
  Beta  occ. eigenvalues --  -10.05384 -10.04665 -10.04237  -0.97775  -0.83854
  Beta  occ. eigenvalues --   -0.78579  -0.77770  -0.72183  -0.70144  -0.66975
  Beta  occ. eigenvalues --   -0.63967  -0.61818  -0.60594  -0.53855  -0.52629
  Beta  occ. eigenvalues --   -0.48942  -0.47708  -0.46095  -0.43241  -0.41960
  Beta  occ. eigenvalues --   -0.38905  -0.38113  -0.37158  -0.35747  -0.33141
  Beta  occ. eigenvalues --   -0.32638  -0.31487  -0.30556  -0.29481  -0.29170
  Beta  occ. eigenvalues --   -0.28642  -0.27275  -0.25198  -0.24494  -0.23871
  Beta  occ. eigenvalues --   -0.23678  -0.23204  -0.22926  -0.21171  -0.19054
  Beta  occ. eigenvalues --   -0.17452  -0.15521  -0.14712  -0.12553  -0.11385
  Beta  occ. eigenvalues --   -0.09158
  Beta virt. eigenvalues --    0.05113   0.07655   0.08065   0.08659   0.08996
  Beta virt. eigenvalues --    0.09949   0.10991   0.11323   0.11736   0.12120
  Beta virt. eigenvalues --    0.12275   0.12726   0.13167   0.14112   0.14674

 Mulliken charges and spin densities:
               1          2
     1  C   -0.257235  -0.001328
     2  O   -0.108393   0.011484
     3  C   -0.671039  -0.007297
     4  N   -0.066116   0.048250
     5  C   -1.239437  -0.029072
     6  N    0.000475   0.086640
     7  C   -0.850236   0.056504
     8  C   -0.347628  -0.002399
     9  C   -0.246454   0.127098
    10  C   -0.487435  -0.017210
    11  C   -0.201359   0.127737
    12  C    0.801014  -0.106802
    13  C    0.378114   0.381978
    14  C    1.089846  -0.034988
    15  C    0.098941   0.297517
    16  C    1.429247   0.096024
    17  C   -1.227797  -0.032285
    18  N   -0.298507   0.063623
    19  H    0.138465  -0.000108
    20  H    0.175965   0.001176
    21  H    0.175801   0.001186
    22  H    0.145659  -0.002954
    23  H    0.122232  -0.009081
    24  H    0.115242   0.001507
    25  H    0.099943  -0.010198
    26  H    0.084643  -0.025159
    27  H    0.146051  -0.021842
 Sum of Mulliken charges =  -1.00000   1.00000

 Dipole moment (field-independent basis, Debye):
    X=              3.2833    Y=              1.5075    Z=             -0.0004  Tot=              3.6129
 Quadrupole moment (field-independent basis, Debye-Ang):
   XX=           -172.1557   YY=           -117.1259   ZZ=           -111.3705
   XY=            -23.3512   XZ=             -0.0003   YZ=             -0.0017

 Summary of Natural Population Analysis:

                                       Natural Population
                Natural  -----------------------------------------------
    Atom  No    Charge         Core      Valence    Rydberg      Total
 -----------------------------------------------------------------------
      C    1   -0.10347      0.99960     2.09560    0.00827     3.10347
      O    2   -0.26545      0.99985     3.25731    0.00829     4.26545
      C    3    0.28888      0.99953     1.68926    0.02233     2.71112
      N    4   -0.26494      0.99961     2.75432    0.01101     3.76494
      C    5    0.19801      0.99950     1.78680    0.01568     2.80199
      N    6   -0.22167      0.99965     2.70783    0.01419     3.72167
      C    7    0.10899      0.99949     1.87824    0.01328     2.89101
      C    8   -0.12129      0.99958     2.10220    0.01951     3.12129
      C    9   -0.01498      0.99958     2.00890    0.00651     3.01498
      C   10   -0.16692      0.99968     2.14446    0.02277     3.16692
      C   11    0.00568      0.99954     1.98913    0.00565     2.99432
      C   12   -0.09363      0.99953     2.07853    0.01557     3.09363
      C   13    0.04014      0.99951     1.95126    0.00909     2.95986
      C   14   -0.08926      0.99949     2.08180    0.00797     3.08926
      C   15    0.02188      0.99957     1.96449    0.01406     2.97812
      C   16   -0.06267      0.99938     2.05284    0.01045     3.06267
      C   17    0.14094      0.99971     1.83937    0.01998     2.85906
      N   18   -0.18497      0.99979     2.67445    0.01074     3.68497
      H   19    0.08454      0.00000     0.41468    0.00078     0.41546
      H   20    0.09107      0.00000     0.40773    0.00120     0.40893
      H   21    0.09101      0.00000     0.40779    0.00120     0.40899
      H   22    0.09903      0.00000     0.39863    0.00234     0.40097
      H   23    0.08508      0.00000     0.41348    0.00143     0.41492
      H   24    0.09251      0.00000     0.40602    0.00147     0.40749
      H   25    0.08529      0.00000     0.41268    0.00202     0.41471
      H   26    0.08775      0.00000     0.41048    0.00177     0.41225
      H   27    0.09346      0.00000     0.40486    0.00169     0.40654
 =======================================================================
   * Total *    0.02501     17.99260    42.73316    0.24924    60.97499

 Normal termination of Gaussian 16 at Fri Dec 11 22:35:49 2020.
