 Gaussian 16, Revision A.03,

 -----------------------------------------------------------
 # opt freq B3LYP/6-31G(d) empiricaldispersion=gd3bj scf=xqc
 -----------------------------------------------------------

 ------------------------------
 CID_84619714_JID_5249_neutraal
 ------------------------------
 Symbolic Z-matrix:
 Charge =  0 Multiplicity = 1

 SCF Done:  E(RB3LYP) =  -614.539467860     A.U. after   14 cycles
 SCF Done:  E(RB3LYP) =  -614.556692800     A.U. after   13 cycles
 SCF Done:  E(RB3LYP) =  -614.557718239     A.U. after   11 cycles
 SCF Done:  E(RB3LYP) =  -614.557829036     A.U. after   10 cycles
 SCF Done:  E(RB3LYP) =  -614.557892066     A.U. after   10 cycles
 SCF Done:  E(RB3LYP) =  -614.557923333     A.U. after   10 cycles
 SCF Done:  E(RB3LYP) =  -614.557918648     A.U. after    9 cycles
 SCF Done:  E(RB3LYP) =  -614.557999123     A.U. after   10 cycles
 SCF Done:  E(RB3LYP) =  -614.558192035     A.U. after   14 cycles
 SCF Done:  E(RB3LYP) =  -614.558212207     A.U. after   12 cycles
 SCF Done:  E(RB3LYP) =  -614.558457483     A.U. after   10 cycles
 SCF Done:  E(RB3LYP) =  -614.558460798     A.U. after    9 cycles
 SCF Done:  E(RB3LYP) =  -614.558463611     A.U. after    9 cycles
 SCF Done:  E(RB3LYP) =  -614.558463994     A.U. after    9 cycles
 SCF Done:  E(RB3LYP) =  -614.558464088     A.U. after    8 cycles
 SCF Done:  E(RB3LYP) =  -614.558464121     A.U. after    7 cycles
 Optimization completed.
    -- Stationary point found.
 Normal termination of Gaussian 16 at Thu Dec 10 15:07:27 2020.

 --------------------------------------------------------------------
 #N Geom=AllCheck Guess=TCheck SCRF=Check GenChk RB3LYP/6-31G(d) Freq
 --------------------------------------------------------------------

 Structure from the checkpoint file:  "JID_5249.chk"
 ------------------------------
 CID_84619714_JID_5249_neutraal
 ------------------------------
 Charge =  0 Multiplicity = 1

 SCF Done:  E(RB3LYP) =  -614.558464121     A.U. after    1 cycles

  Exact polarizability: 202.096   4.825 164.314   7.938   1.179  82.141
 Approx polarizability: 292.059   9.760 264.608  17.074   2.780 127.401

                      1                      2                      3
                      A                      A                      A
 Frequencies --     39.8479                49.1556                74.5157
 Red. masses --      3.2642                 2.8047                 2.6250
 Frc consts  --      0.0031                 0.0040                 0.0086
 IR Inten    --      0.3055                 5.5221                 0.6385

                      4                      5                      6
                      A                      A                      A
 Frequencies --     89.4873               115.6743               122.0779
 Red. masses --      1.8998                 1.2723                 1.8221
 Frc consts  --      0.0090                 0.0100                 0.0160
 IR Inten    --      1.7640                 0.3650                 1.4317

                      7                      8                      9
                      A                      A                      A
 Frequencies --    182.8831               220.8579               237.7275
 Red. masses --      3.3306                 2.9004                 2.7150
 Frc consts  --      0.0656                 0.0834                 0.0904
 IR Inten    --      0.1082                 0.6778                 1.8418

                     10                     11                     12
                      A                      A                      A
 Frequencies --    248.8229               267.2396               304.0632
 Red. masses --      1.7715                 1.5843                 4.4174
 Frc consts  --      0.0646                 0.0667                 0.2406
 IR Inten    --      0.6874                 1.9895                 0.9403

                     13                     14                     15
                      A                      A                      A
 Frequencies --    311.2697               358.5119               446.8663
 Red. masses --      3.5453                 4.4061                 4.1656
 Frc consts  --      0.2024                 0.3337                 0.4901
 IR Inten    --      1.5050                 1.0666                 1.0557

                     16                     17                     18
                      A                      A                      A
 Frequencies --    505.0461               538.9601               570.8337
 Red. masses --      3.7327                 4.4499                 4.1584
 Frc consts  --      0.5610                 0.7616                 0.7984
 IR Inten    --      0.2236                 0.2454                 1.1580

                     19                     20                     21
                      A                      A                      A
 Frequencies --    586.5458               610.1120               643.3872
 Red. masses --      4.6880                 5.8156                 4.4743
 Frc consts  --      0.9503                 1.2754                 1.0912
 IR Inten    --      4.9336                 1.5555                 2.3501

                     22                     23                     24
                      A                      A                      A
 Frequencies --    659.5192               737.7423               760.5217
 Red. masses --      4.2833                 4.6619                 1.9530
 Frc consts  --      1.0977                 1.4949                 0.6655
 IR Inten    --      3.4697                 1.0670                21.9548

                     25                     26                     27
                      A                      A                      A
 Frequencies --    776.6275               796.2800               829.7800
 Red. masses --      1.7714                 1.3688                 2.4355
 Frc consts  --      0.6295                 0.5114                 0.9880
 IR Inten    --     23.5759                81.3276                 4.4594

                     28                     29                     30
                      A                      A                      A
 Frequencies --    851.5437               869.9197               882.6157
 Red. masses --      2.3757                 2.7162                 1.3690
 Frc consts  --      1.0150                 1.2111                 0.6284
 IR Inten    --      2.0030                 0.1799                 0.0586

                     31                     32                     33
                      A                      A                      A
 Frequencies --    909.1678               942.9622               960.9154
 Red. masses --      3.3964                 1.2402                 3.1875
 Frc consts  --      1.6541                 0.6497                 1.7341
 IR Inten    --      0.0506                 0.5062                15.2916

                     34                     35                     36
                      A                      A                      A
 Frequencies --    990.6499              1002.7851              1049.0165
 Red. masses --      1.7143                 2.6758                 1.9558
 Frc consts  --      0.9912                 1.5853                 1.2680
 IR Inten    --     12.0625                11.5164                 1.4473

                     37                     38                     39
                      A                      A                      A
 Frequencies --   1068.3440              1078.4184              1080.7324
 Red. masses --      1.6948                 1.5369                 2.0800
 Frc consts  --      1.1397                 1.0531                 1.4314
 IR Inten    --      2.0943                 5.0498                 4.5483

                     40                     41                     42
                      A                      A                      A
 Frequencies --   1134.1439              1148.0737              1169.4280
 Red. masses --      2.5454                 2.5600                 1.6065
 Frc consts  --      1.9291                 1.9880                 1.2944
 IR Inten    --     16.2263                21.0617                24.8860

                     43                     44                     45
                      A                      A                      A
 Frequencies --   1192.2338              1194.8250              1207.3441
 Red. masses --      1.3574                 1.6541                 1.1661
 Frc consts  --      1.1368                 1.3913                 1.0015
 IR Inten    --      2.4212                 3.9200                 1.1403

                     46                     47                     48
                      A                      A                      A
 Frequencies --   1223.9977              1248.7517              1258.9587
 Red. masses --      2.0947                 1.6988                 1.5766
 Frc consts  --      1.8490                 1.5608                 1.4723
 IR Inten    --      5.1994                 1.0907                12.3863

                     49                     50                     51
                      A                      A                      A
 Frequencies --   1290.0432              1297.6877              1330.6420
 Red. masses --      1.3480                 1.5113                 1.5832
 Frc consts  --      1.3218                 1.4995                 1.6516
 IR Inten    --      4.1753                 1.4864                 7.6472

                     52                     53                     54
                      A                      A                      A
 Frequencies --   1357.2184              1383.5378              1407.0023
 Red. masses --      3.0480                 1.6278                 2.7634
 Frc consts  --      3.3080                 1.8358                 3.2231
 IR Inten    --     66.0187                35.5917                 2.4974

                     55                     56                     57
                      A                      A                      A
 Frequencies --   1425.9382              1444.0171              1459.3325
 Red. masses --      3.2139                 1.2865                 2.8167
 Frc consts  --      3.8502                 1.5806                 3.5342
 IR Inten    --     14.2384                 5.5843                27.7073

                     58                     59                     60
                      A                      A                      A
 Frequencies --   1483.3354              1501.1891              1507.8235
 Red. masses --      1.2366                 1.2665                 1.7756
 Frc consts  --      1.6030                 1.6817                 2.3785
 IR Inten    --      1.4642                37.2576                14.4108

                     61                     62                     63
                      A                      A                      A
 Frequencies --   1513.5793              1518.5669              1520.1336
 Red. masses --      1.1369                 1.1012                 1.3820
 Frc consts  --      1.5346                 1.4961                 1.8816
 IR Inten    --      0.4168                 6.7605                11.9127

                     64                     65                     66
                      A                      A                      A
 Frequencies --   1527.1220              1538.4121              1539.0772
 Red. masses --      1.1192                 1.3611                 1.3066
 Frc consts  --      1.5378                 1.8980                 1.8236
 IR Inten    --      6.1592                 6.2156                14.0253

                     67                     68                     69
                      A                      A                      A
 Frequencies --   1547.4908              1564.1420              1583.3890
 Red. masses --      1.0632                 1.8143                 4.3049
 Frc consts  --      1.5001                 2.6153                 6.3591
 IR Inten    --      3.1069                10.9976                 1.7084

                     70                     71                     72
                      A                      A                      A
 Frequencies --   1637.9254              1714.7829              2923.1753
 Red. masses --      7.1786                 9.1982                 1.0741
 Frc consts  --     11.3470                15.9358                 5.4076
 IR Inten    --      1.1695                 9.7077                60.0008

                     73                     74                     75
                      A                      A                      A
 Frequencies --   2947.5100              3028.8749              3034.3222
 Red. masses --      1.0616                 1.0425                 1.0849
 Frc consts  --      5.4341                 5.6347                 5.8850
 IR Inten    --    126.7044                51.3360                34.5974

                     76                     77                     78
                      A                      A                      A
 Frequencies --   3051.0939              3060.6214              3073.0908
 Red. masses --      1.0621                 1.0661                 1.0731
 Frc consts  --      5.8253                 5.8839                 5.9709
 IR Inten    --     53.3304                47.2419                43.6436

                     79                     80                     81
                      A                      A                      A
 Frequencies --   3075.0393              3092.4987              3108.6901
 Red. masses --      1.0979                 1.0987                 1.1052
 Frc consts  --      6.1169                 6.1906                 6.2927
 IR Inten    --     26.2083                21.6408                38.6991

                     82                     83                     84
                      A                      A                      A
 Frequencies --   3124.2215              3140.7158              3178.3591
 Red. masses --      1.1016                 1.0977                 1.0857
 Frc consts  --      6.3350                 6.3793                 6.4621
 IR Inten    --     31.8472                 4.6790                 2.5174

                     85                     86                     87
                      A                      A                      A
 Frequencies --   3193.0529              3203.3330              3500.1107
 Red. masses --      1.0907                 1.0947                 1.0745
 Frc consts  --      6.5517                 6.6185                 7.7559
 IR Inten    --     22.4617                42.4110                 0.0977

 - Thermochemistry -
 -------------------
 Temperature   298.150 Kelvin.  Pressure   1.00000 Atm.
 Atom     1 has atomic number  6 and mass  12.00000

 Molecular mass:   200.13135 amu.
 Principal axes and moments of inertia in atomic units:
                           1         2         3
     Eigenvalues --  1594.593564210.773845610.35484
           X            1.00000  -0.00067  -0.00041
           Y            0.00067   1.00000  -0.00106
           Z            0.00041   0.00106   1.00000
 This molecule is an asymmetric top.
 Rotational symmetry number  1.
 Warning -- assumption of classical behavior for rotation
           may cause significant error
 Rotational temperatures (Kelvin)      0.05432     0.02057     0.01544
 Rotational constants (GHZ):           1.13179     0.42860     0.32168
 Zero-point vibrational energy     702066.1 (Joules/Mol)
                                  167.79782 (Kcal/Mol)
 Warning -- explicit consideration of  20 degrees of freedom as
           vibrations may cause significant error
 Vibrational temperatures:     57.33    70.72   107.21   128.75   166.43
          (Kelvin)            175.64   263.13   317.77   342.04   358.00
                              384.50   437.48   447.85   515.82   642.94
                              726.65   775.44   821.30   843.91   877.82
                              925.69   948.90  1061.45  1094.22  1117.39
                             1145.67  1193.87  1225.18  1251.62  1269.89
                             1308.09  1356.71  1382.54  1425.32  1442.78
                             1509.30  1537.11  1551.60  1554.93  1631.78
                             1651.82  1682.55  1715.36  1719.09  1737.10
                             1761.06  1796.68  1811.36  1856.08  1867.08
                             1914.50  1952.73  1990.60  2024.36  2051.61
                             2077.62  2099.65  2134.19  2159.88  2169.42
                             2177.70  2184.88  2187.13  2197.19  2213.43
                             2214.39  2226.49  2250.45  2278.14  2356.61
                             2467.19  4205.80  4240.81  4357.88  4365.71
                             4389.84  4403.55  4421.49  4424.30  4449.42
                             4472.71  4495.06  4518.79  4572.95  4594.09
                             4608.88  5035.88

 Zero-point correction=                           0.267403 (Hartree/Particle)
 Thermal correction to Energy=                    0.281284
 Thermal correction to Enthalpy=                  0.282228
 Thermal correction to Gibbs Free Energy=         0.225948
 Sum of electronic and zero-point Energies=           -614.291061
 Sum of electronic and thermal Energies=              -614.277181
 Sum of electronic and thermal Enthalpies=            -614.276236
 Sum of electronic and thermal Free Energies=         -614.332516

                     E (Thermal)             CV                S
                      KCal/Mol        Cal/Mol-Kelvin    Cal/Mol-Kelvin
 Total                  176.508             52.552            118.451
 Electronic               0.000              0.000              0.000
 Translational            0.889              2.981             41.786
 Rotational               0.889              2.981             31.999
 Vibrational            174.731             46.591             44.666
 Vibration     1          0.594              1.981              5.267
 Vibration     2          0.595              1.978              4.851
 Vibration     3          0.599              1.966              4.030
 Vibration     4          0.602              1.957              3.671
 Vibration     5          0.608              1.936              3.171
 Vibration     6          0.610              1.931              3.067
 Vibration     7          0.630              1.863              2.299
 Vibration     8          0.648              1.809              1.952
 Vibration     9          0.656              1.783              1.820
 Vibration    10          0.662              1.765              1.739
 Vibration    11          0.672              1.733              1.614
 Vibration    12          0.695              1.666              1.394
 Vibration    13          0.700              1.652              1.356
 Vibration    14          0.733              1.558              1.129
 Vibration    15          0.806              1.368              0.805
 Vibration    16          0.860              1.239              0.646
 Vibration    17          0.894              1.164              0.568
 Vibration    18          0.927              1.094              0.503
 Vibration    19          0.944              1.060              0.473
 Vibration    20          0.969              1.010              0.433

 Optimization completed.
    -- Stationary point found.
 Normal termination of Gaussian 16 at Thu Dec 10 15:18:25 2020.

 ----------------------------------------------------------------------
 # B3LYP/6-311++G(d,p) empiricaldispersion=gd3bj scf=xqc pop=npa geom=c
 heck
 ----------------------------------------------------------------------

 --------------------------------------
 CID_84619714_JID_5249_Energie_neutraal
 --------------------------------------
 Structure from the checkpoint file:  "JID_5249.chk"
 Charge =  0 Multiplicity = 1

 SCF Done:  E(RB3LYP) =  -614.716295698     A.U. after   15 cycles
 Normal termination of Gaussian 16 at Thu Dec 10 15:23:42 2020.

 ----------------------------------------------------------------------
 # B3LYP/6-311++G(d,p) empiricaldispersion=gd3bj scf=xqc pop=npa geom=c
 heck
 ----------------------------------------------------------------------

 ------------------------------------
 CID_84619714_JID_5249_Energie_kation
 ------------------------------------
 Structure from the checkpoint file:  "JID_5249.chk"
 Charge =  1 Multiplicity = 2

 SCF Done:  E(UB3LYP) =  -614.462644717     A.U. after   24 cycles
 Normal termination of Gaussian 16 at Thu Dec 10 15:35:35 2020.
 Gaussian 16:  ES64L-G16RevA.03 25-Dec-2016

 ----------------------------------------------------------------------
 # B3LYP/6-311++G(d,p) empiricaldispersion=gd3bj scf=xqc pop=npa geom=c
 heck
 ----------------------------------------------------------------------

 -----------------------------------
 CID_84619714_JID_5249_Energie_anion
 -----------------------------------
 Structure from the checkpoint file:  "JID_5249.chk"
 Charge = -1 Multiplicity = 2

                         Standard orientation:
 ---------------------------------------------------------------------
 Center     Atomic      Atomic             Coordinates (Angstroms)
 Number     Number       Type             X           Y           Z
 ---------------------------------------------------------------------
      1          6           0       -1.255302    2.574615   -0.324001
      2          6           0       -0.476861    1.298326   -0.210469
      3          6           0       -1.005274    0.008165   -0.301175
      4          7           0        0.023682   -0.912185   -0.112082
      5          6           0        0.353062   -2.334029   -0.286939
      6          6           0        1.908692   -2.394311    0.029482
      7          6           0        2.337207   -0.929518    0.112756
      8          6           0        1.169936   -0.204169    0.035685
      9          6           0        0.951288    1.170013   -0.001533
     10          6           0        2.138450    1.930705    0.126016
     11          6           0        3.356929    1.255201    0.240469
     12          6           0        3.488808   -0.164972    0.227489
     13          6           0       -2.420587   -0.435687   -0.508453
     14          7           0       -3.312673    0.081105    0.530734
     15          6           0       -4.658714   -0.466331    0.436577
     16          1           0       -0.995956    3.267402    0.486609
     17          1           0       -2.329175    2.380627   -0.263348
     18          1           0       -1.044925    3.096344   -1.267934
     19          1           0        0.144922   -2.655413   -1.314555
     20          1           0       -0.226600   -2.967909    0.391087
     21          1           0        2.436691   -2.952870   -0.750149
     22          1           0        2.082859   -2.920983    0.975206
     23          1           0        2.124363    3.017201    0.120912
     24          1           0        4.264958    1.845374    0.331671
     25          1           0        4.477467   -0.609775    0.298611
     26          1           0       -2.798571   -0.068382   -1.472968
     27          1           0       -2.440639   -1.541645   -0.575860
     28          1           0       -2.909325   -0.129948    1.441160
     29          1           0       -4.701539   -1.572307    0.448779
     30          1           0       -5.266734   -0.088055    1.264187
     31          1           0       -5.120676   -0.130154   -0.499395
 ---------------------------------------------------------------------

 SCF Done:  E(UB3LYP) =  -614.703697541     A.U. after   31 cycles

 The electronic state is 2-A.
 Alpha  occ. eigenvalues --  -14.25017 -14.19987 -10.11862 -10.10840 -10.10154
 Alpha  occ. eigenvalues --  -10.09218 -10.08454 -10.08358 -10.08187 -10.07780
 Alpha  occ. eigenvalues --  -10.07679 -10.07456 -10.07029 -10.06884 -10.06457
 Alpha  occ. eigenvalues --   -0.89833  -0.80712  -0.74696  -0.73571  -0.65761
 Alpha  occ. eigenvalues --   -0.65018  -0.63692  -0.60788  -0.57441  -0.54090
 Alpha  occ. eigenvalues --   -0.53605  -0.49638  -0.47516  -0.45288  -0.40283
 Alpha  occ. eigenvalues --   -0.39239  -0.38919  -0.38276  -0.35446  -0.34880
 Alpha  occ. eigenvalues --   -0.34175  -0.32797  -0.31983  -0.31114  -0.30261
 Alpha  occ. eigenvalues --   -0.29675  -0.29470  -0.28751  -0.28536  -0.27043
 Alpha  occ. eigenvalues --   -0.26710  -0.26574  -0.25320  -0.23178  -0.22108
 Alpha  occ. eigenvalues --   -0.17227  -0.13115  -0.12170  -0.09863   0.04395
 Alpha virt. eigenvalues --    0.06542   0.06986   0.07420   0.07866   0.08160
 Alpha virt. eigenvalues --    0.08587   0.09278   0.09924   0.10380   0.10673
 Alpha virt. eigenvalues --    0.11168   0.11488   0.11935   0.12598   0.12878

  Beta  occ. eigenvalues --  -14.25017 -14.19969 -10.11811 -10.10839 -10.10127
  Beta  occ. eigenvalues --  -10.09188 -10.08411 -10.08356 -10.08186 -10.07778
  Beta  occ. eigenvalues --  -10.07677 -10.07455 -10.07028 -10.06884 -10.06450
  Beta  occ. eigenvalues --   -0.89822  -0.80683  -0.74688  -0.73550  -0.65744
  Beta  occ. eigenvalues --   -0.64994  -0.63658  -0.60758  -0.57394  -0.54012
  Beta  occ. eigenvalues --   -0.53531  -0.49622  -0.47480  -0.45264  -0.40240
  Beta  occ. eigenvalues --   -0.39219  -0.38883  -0.38232  -0.35415  -0.34824
  Beta  occ. eigenvalues --   -0.34155  -0.32770  -0.31961  -0.31078  -0.30240
  Beta  occ. eigenvalues --   -0.29648  -0.29435  -0.28720  -0.28511  -0.26992
  Beta  occ. eigenvalues --   -0.26667  -0.26545  -0.25301  -0.23163  -0.22090
  Beta  occ. eigenvalues --   -0.17218  -0.13076  -0.12160  -0.09853
  Beta virt. eigenvalues --    0.06543   0.07087   0.07398   0.07562   0.08270
  Beta virt. eigenvalues --    0.08800   0.09045   0.09869   0.10235   0.10663
  Beta virt. eigenvalues --    0.11012   0.11377   0.11538   0.12428   0.12769

 Mulliken charges and spin densities:
               1          2
     1  C   -0.625536  -0.082011
     2  C   -0.160370   0.401626
     3  C   -0.254318   0.323381
     4  N    0.146683   0.269188
     5  C    0.693459  -0.810209
     6  C    1.795331  -2.572333
     7  C   -0.595448   0.782651
     8  C    0.122578  -0.135275
     9  C    0.009441   0.632094
    10  C   -0.419468  -0.166945
    11  C   -0.353867   0.104940
    12  C   -0.632649   0.241221
    13  C    0.693098  -1.518242
    14  N   -0.335874   0.243438
    15  C    0.997480  -1.359660
    16  H    0.082418   0.044036
    17  H    0.104243   0.086502
    18  H    0.067023   0.072016
    19  H   -0.421890   0.612891
    20  H   -0.616301   0.807898
    21  H   -0.179060   0.360466
    22  H   -0.159393   0.339074
    23  H    0.098461   0.042376
    24  H    0.073562   0.054693
    25  H    0.001110   0.140368
    26  H   -0.076260   0.253154
    27  H   -0.099237   0.251673
    28  H    0.036441   0.188966
    29  H   -0.421240   0.555889
    30  H   -0.284333   0.412384
    31  H   -0.286086   0.423747
 Sum of Mulliken charges =  -1.00000   1.00000

 Dipole moment (field-independent basis, Debye):
    X=              5.5528    Y=              6.2935    Z=             -0.3960  Tot=              8.4023
 Quadrupole moment (field-independent basis, Debye-Ang):
   XX=           -162.5220   YY=           -144.3170   ZZ=           -121.3955
   XY=             -5.9071   XZ=              3.5268   YZ=              0.2941

 Summary of Natural Population Analysis:

                                       Natural Population
                Natural  -----------------------------------------------
    Atom  No    Charge         Core      Valence    Rydberg      Total
 -----------------------------------------------------------------------
      C    1   -0.29529      0.99963     2.29061    0.00504     3.29529
      C    2   -0.06282      0.99950     2.04888    0.01443     3.06282
      C    3    0.09370      0.99947     1.89366    0.01316     2.90630
      N    4   -0.20862      0.99955     2.69767    0.01139     3.70862
      C    5   -0.07119      0.99963     2.06147    0.01008     3.07119
      C    6   -0.19323      0.99962     2.18539    0.00823     3.19323
      C    7   -0.02388      0.99942     2.01390    0.01056     3.02388
      C    8    0.07990      0.99948     1.90720    0.01341     2.92010
      C    9    0.00927      0.99942     1.98060    0.01071     2.99073
      C   10   -0.12166      0.99959     2.10559    0.01647     3.12166
      C   11   -0.11671      0.99960     2.10733    0.00978     3.11671
      C   12   -0.11627      0.99953     2.10719    0.00955     3.11627
      C   13   -0.10269      0.99959     2.09166    0.01144     3.10269
      N   14   -0.33477      0.99975     2.82355    0.01147     3.83477
      C   15   -0.17883      0.99967     2.17045    0.00872     3.17883
      H   16    0.09830      0.00000     0.40024    0.00146     0.40170
      H   17    0.11476      0.00000     0.38388    0.00136     0.38524
      H   18    0.09633      0.00000     0.40220    0.00147     0.40367
      H   19    0.09694      0.00000     0.40068    0.00238     0.40306
      H   20    0.10484      0.00000     0.39089    0.00428     0.39516
      H   21    0.10709      0.00000     0.39152    0.00139     0.39291
      H   22    0.10692      0.00000     0.39164    0.00144     0.39308
      H   23    0.09756      0.00000     0.40131    0.00113     0.40244
      H   24    0.09495      0.00000     0.40430    0.00075     0.40505
      H   25    0.09814      0.00000     0.40102    0.00084     0.40186
      H   26    0.09768      0.00000     0.40094    0.00138     0.40232
      H   27    0.09109      0.00000     0.40654    0.00237     0.40891
      H   28    0.17308      0.00000     0.32382    0.00309     0.32692
      H   29    0.08319      0.00000     0.41440    0.00241     0.41681
      H   30    0.09493      0.00000     0.40400    0.00107     0.40507
      H   31    0.08999      0.00000     0.40864    0.00137     0.41001
 =======================================================================
   * Total *    0.00271     14.99346    38.81116    0.19268    53.99729

 Normal termination of Gaussian 16 at Thu Dec 10 15:51:10 2020.
