 Gaussian 16, Revision A.03,

 -----------------------------------------------------------
 # opt freq B3LYP/6-31G(d) empiricaldispersion=gd3bj scf=xqc
 -----------------------------------------------------------

 ------------------------------
 CID_61485844_JID_5714_neutraal
 ------------------------------
 Symbolic Z-matrix:
 Charge =  0 Multiplicity = 1

 SCF Done:  E(RB3LYP) =  -657.742686093     A.U. after   14 cycles
 SCF Done:  E(RB3LYP) =  -657.744319539     A.U. after   12 cycles
 SCF Done:  E(RB3LYP) =  -657.741319833     A.U. after   12 cycles
 SCF Done:  E(RB3LYP) =  -657.744336351     A.U. after   12 cycles
 SCF Done:  E(RB3LYP) =  -657.745999822     A.U. after    9 cycles
 SCF Done:  E(RB3LYP) =  -657.746565742     A.U. after   11 cycles
 SCF Done:  E(RB3LYP) =  -657.746695528     A.U. after   11 cycles
 SCF Done:  E(RB3LYP) =  -657.746896082     A.U. after   11 cycles
 SCF Done:  E(RB3LYP) =  -657.746958006     A.U. after   10 cycles
 SCF Done:  E(RB3LYP) =  -657.746966847     A.U. after    9 cycles
 SCF Done:  E(RB3LYP) =  -657.746986749     A.U. after    8 cycles
 SCF Done:  E(RB3LYP) =  -657.746986903     A.U. after    7 cycles
 SCF Done:  E(RB3LYP) =  -657.746986967     A.U. after    7 cycles
 SCF Done:  E(RB3LYP) =  -657.746987015     A.U. after    7 cycles
 SCF Done:  E(RB3LYP) =  -657.746987044     A.U. after    6 cycles
 Optimization completed.
    -- Stationary point found.
 Normal termination of Gaussian 16 at Thu Dec 10 16:45:45 2020.

 --------------------------------------------------------------------
 #N Geom=AllCheck Guess=TCheck SCRF=Check GenChk RB3LYP/6-31G(d) Freq
 --------------------------------------------------------------------

 Structure from the checkpoint file:  "JID_5714.chk"
 ------------------------------
 CID_61485844_JID_5714_neutraal
 ------------------------------
 Charge =  0 Multiplicity = 1

 SCF Done:  E(RB3LYP) =  -657.746987044     A.U. after    1 cycles

  Exact polarizability: 164.704   4.150 149.521   0.281   4.610 117.479
 Approx polarizability: 195.035   4.470 209.321  -0.408  12.066 183.765

                      1                      2                      3
                      A                      A                      A
 Frequencies --     14.4169                34.3927                43.7559
 Red. masses --      3.5059                 3.5347                 3.2170
 Frc consts  --      0.0004                 0.0025                 0.0036
 IR Inten    --      0.3686                 1.2260                 0.2513

                      4                      5                      6
                      A                      A                      A
 Frequencies --     55.3320                60.6416                81.9851
 Red. masses --      3.8948                 3.4900                 2.7438
 Frc consts  --      0.0070                 0.0076                 0.0109
 IR Inten    --      0.9236                 1.8355                 0.9492

                      7                      8                      9
                      A                      A                      A
 Frequencies --     87.2645               106.6498               132.8827
 Red. masses --      2.8158                 3.1840                 2.3611
 Frc consts  --      0.0126                 0.0213                 0.0246
 IR Inten    --      0.6977                 0.2805                 0.1577

                     10                     11                     12
                      A                      A                      A
 Frequencies --    149.6848               197.6026               205.9695
 Red. masses --      2.2308                 1.9504                 1.2276
 Frc consts  --      0.0294                 0.0449                 0.0307
 IR Inten    --      0.5779                 0.4597                 0.1853

                     13                     14                     15
                      A                      A                      A
 Frequencies --    219.4199               243.1750               264.5589
 Red. masses --      1.0621                 1.6764                 1.5674
 Frc consts  --      0.0301                 0.0584                 0.0646
 IR Inten    --      0.0971                 0.6312                 0.2032

                     16                     17                     18
                      A                      A                      A
 Frequencies --    274.7886               288.2584               293.5402
 Red. masses --      1.7490                 2.2563                 2.6734
 Frc consts  --      0.0778                 0.1105                 0.1357
 IR Inten    --      0.4857                 0.9690                 1.2553

                     19                     20                     21
                      A                      A                      A
 Frequencies --    341.8139               381.6901               393.6301
 Red. masses --      2.2675                 2.1092                 2.6009
 Frc consts  --      0.1561                 0.1810                 0.2374
 IR Inten    --      0.2429                 0.8940                 0.5844

                     22                     23                     24
                      A                      A                      A
 Frequencies --    400.4797               434.8154               470.6886
 Red. masses --      1.9804                 2.4853                 2.5254
 Frc consts  --      0.1871                 0.2768                 0.3296
 IR Inten    --      0.1736                 3.0003                 0.2826

                     25                     26                     27
                      A                      A                      A
 Frequencies --    486.7082               494.4308               573.5859
 Red. masses --      2.8952                 2.0965                 2.8729
 Frc consts  --      0.4041                 0.3020                 0.5569
 IR Inten    --      5.8957                 3.8056                29.3557

                     28                     29                     30
                      A                      A                      A
 Frequencies --    590.4953               634.8666               705.4313
 Red. masses --      2.5462                 1.5074                 2.7687
 Frc consts  --      0.5231                 0.3580                 0.8118
 IR Inten    --     11.0344                55.2992                45.7637

                     31                     32                     33
                      A                      A                      A
 Frequencies --    745.2022               760.4491               801.6101
 Red. masses --      1.3593                 1.4868                 1.5113
 Frc consts  --      0.4447                 0.5066                 0.5722
 IR Inten    --      7.8009                50.1946                10.7588

                     34                     35                     36
                      A                      A                      A
 Frequencies --    819.0055               842.5840               860.0901
 Red. masses --      2.1132                 2.0985                 1.8639
 Frc consts  --      0.8352                 0.8778                 0.8124
 IR Inten    --     13.2068                30.0145                 0.6835

                     37                     38                     39
                      A                      A                      A
 Frequencies --    894.3277               906.2180               941.5275
 Red. masses --      2.2234                 1.9007                 1.2456
 Frc consts  --      1.0478                 0.9197                 0.6506
 IR Inten    --      8.3319                 4.8256                 2.1128

                     40                     41                     42
                      A                      A                      A
 Frequencies --    957.3089               962.3101               978.9480
 Red. masses --      1.8602                 1.8632                 1.5438
 Frc consts  --      1.0044                 1.0166                 0.8717
 IR Inten    --     26.5691                 6.8896                 1.6358

                     43                     44                     45
                      A                      A                      A
 Frequencies --    981.2750              1003.1691              1037.4134
 Red. masses --      1.4792                 1.9890                 1.4969
 Frc consts  --      0.8392                 1.1793                 0.9492
 IR Inten    --      2.0668                12.6989                14.6544

                     46                     47                     48
                      A                      A                      A
 Frequencies --   1048.9276              1065.9098              1075.5093
 Red. masses --      1.3027                 1.5830                 2.9041
 Frc consts  --      0.8445                 1.0597                 1.9792
 IR Inten    --      3.7627                 3.2612                 6.3890

                     49                     50                     51
                      A                      A                      A
 Frequencies --   1100.2028              1123.0587              1144.8056
 Red. masses --      2.3308                 2.8250                 2.3594
 Frc consts  --      1.6623                 2.0993                 1.8219
 IR Inten    --      6.8204                17.2931                29.8346

                     52                     53                     54
                      A                      A                      A
 Frequencies --   1149.6863              1172.1528              1182.3472
 Red. masses --      2.0008                 2.3523                 1.9037
 Frc consts  --      1.5582                 1.9042                 1.5680
 IR Inten    --      4.9393                 1.9962                19.2846

                     55                     56                     57
                      A                      A                      A
 Frequencies --   1197.9122              1209.0686              1244.9905
 Red. masses --      1.9716                 1.6966                 1.5656
 Frc consts  --      1.6670                 1.4613                 1.4298
 IR Inten    --      3.8715                 1.5517                12.2366

                     58                     59                     60
                      A                      A                      A
 Frequencies --   1262.3316              1289.7477              1306.3227
 Red. masses --      1.2786                 1.3156                 1.2414
 Frc consts  --      1.2004                 1.2893                 1.2481
 IR Inten    --      1.0369                 7.3667                 2.0486

                     61                     62                     63
                      A                      A                      A
 Frequencies --   1322.5509              1338.5329              1346.9126
 Red. masses --      1.3015                 1.1668                 1.2593
 Frc consts  --      1.3413                 1.2317                 1.3461
 IR Inten    --      7.5159                15.4293                 5.3497

                     64                     65                     66
                      A                      A                      A
 Frequencies --   1368.3449              1369.8380              1384.6315
 Red. masses --      1.3894                 1.4266                 1.4005
 Frc consts  --      1.5328                 1.5772                 1.5820
 IR Inten    --     11.3367                53.8922                10.7264

                     67                     68                     69
                      A                      A                      A
 Frequencies --   1399.8507              1402.9386              1407.5132
 Red. masses --      1.4596                 1.4932                 1.3753
 Frc consts  --      1.6852                 1.7316                 1.6053
 IR Inten    --      9.0251                 2.9562                18.8928

                     70                     71                     72
                      A                      A                      A
 Frequencies --   1418.4902              1424.6882              1436.6028
 Red. masses --      1.4096                 1.2748                 1.6062
 Frc consts  --      1.6711                 1.5245                 1.9531
 IR Inten    --     11.4490                 2.0494                38.7046

                     73                     74                     75
                      A                      A                      A
 Frequencies --   1444.8831              1446.6992              1447.9873
 Red. masses --      1.2548                 1.2682                 1.2480
 Frc consts  --      1.5435                 1.5638                 1.5417
 IR Inten    --      2.0105                12.0032                 7.5123

                     76                     77                     78
                      A                      A                      A
 Frequencies --   1507.9293              1511.3653              1512.3042
 Red. masses --      1.1189                 1.3112                 1.4055
 Frc consts  --      1.4990                 1.7646                 1.8939
 IR Inten    --      4.4265                50.9864                27.8185

                     79                     80                     81
                      A                      A                      A
 Frequencies --   1516.8501              1519.4024              1522.0644
 Red. masses --      1.1364                 1.0542                 1.1047
 Frc consts  --      1.5405                 1.4338                 1.5079
 IR Inten    --     11.4436                 2.7070                 1.2623

                     82                     83                     84
                      A                      A                      A
 Frequencies --   1526.5426              1528.3758              1533.6709
 Red. masses --      1.0873                 1.0635                 1.0459
 Frc consts  --      1.4929                 1.4637                 1.4494
 IR Inten    --      4.6922                 4.2361                 7.0864

                     85                     86                     87
                      A                      A                      A
 Frequencies --   1535.2037              1538.4928              1539.4089
 Red. masses --      1.0551                 1.0609                 1.0662
 Frc consts  --      1.4651                 1.4795                 1.4887
 IR Inten    --      8.1005                12.6029                 6.1229

                     88                     89                     90
                      A                      A                      A
 Frequencies --   1540.9949              1542.4460              1552.5509
 Red. masses --      1.0728                 1.0646                 1.0594
 Frc consts  --      1.5009                 1.4923                 1.5045
 IR Inten    --      5.9532                 7.0331                 5.9653

                     91                     92                     93
                      A                      A                      A
 Frequencies --   1784.3258              3001.8567              3015.3009
 Red. masses --      7.5948                 1.0807                 1.0838
 Frc consts  --     14.2468                 5.7376                 5.8060
 IR Inten    --    368.6210                 1.1365                32.1672

                     94                     95                     96
                      A                      A                      A
 Frequencies --   3026.8339              3033.1762              3038.7218
 Red. masses --      1.0576                 1.0682                 1.0607
 Frc consts  --      5.7087                 5.7904                 5.7705
 IR Inten    --     24.5447                21.0604                28.6617

                     97                     98                     99
                      A                      A                      A
 Frequencies --   3040.5409              3044.1771              3046.3195
 Red. masses --      1.0416                 1.0412                 1.0412
 Frc consts  --      5.6735                 5.6847                 5.6930
 IR Inten    --     15.5136                10.3695                38.8642

                    100                    101                    102
                      A                      A                      A
 Frequencies --   3049.6263              3054.1576              3060.2700
 Red. masses --      1.0370                 1.0692                 1.0747
 Frc consts  --      5.6821                 5.8761                 5.9298
 IR Inten    --     20.1603                53.1002                42.5983

                    103                    104                    105
                      A                      A                      A
 Frequencies --   3068.4352              3070.0218              3086.9671
 Red. masses --      1.0927                 1.0987                 1.0998
 Frc consts  --      6.0618                 6.1010                 6.1751
 IR Inten    --     30.2548                18.2318                16.7471

                    106                    107                    108
                      A                      A                      A
 Frequencies --   3097.9017              3099.3647              3107.9394
 Red. masses --      1.0967                 1.0995                 1.0993
 Frc consts  --      6.2011                 6.2227                 6.2561
 IR Inten    --     46.6917                 8.7152                48.8014

                    109                    110                    111
                      A                      A                      A
 Frequencies --   3108.5734              3112.8880              3116.3215
 Red. masses --      1.1022                 1.1015                 1.1014
 Frc consts  --      6.2750                 6.2885                 6.3019
 IR Inten    --     65.8280                59.2894                42.0229

                    112                    113                    114
                      A                      A                      A
 Frequencies --   3120.9977              3127.8670              3163.4984
 Red. masses --      1.1016                 1.1002                 1.0917
 Frc consts  --      6.3219                 6.3421                 6.4370
 IR Inten    --     50.4093                27.9306                12.3593

                    115                    116                    117
                      A                      A                      A
 Frequencies --   3168.0465              3483.6152              3587.3333
 Red. masses --      1.0951                 1.0731                 1.0749
 Frc consts  --      6.4757                 7.6727                 8.1504
 IR Inten    --     15.3514                 0.1088                11.6531

 - Thermochemistry -
 -------------------
 Temperature   298.150 Kelvin.  Pressure   1.00000 Atm.
 Atom     1 has atomic number  6 and mass  12.00000

 Molecular mass:   214.20451 amu.
 Principal axes and moments of inertia in atomic units:
                           1         2         3
     Eigenvalues --  2314.832575841.826537495.58606
           X            0.99985   0.01717   0.00103
           Y           -0.01717   0.99985   0.00200
           Z           -0.00100  -0.00202   1.00000
 This molecule is an asymmetric top.
 Rotational symmetry number  1.
 Warning -- assumption of classical behavior for rotation
           may cause significant error
 Rotational temperatures (Kelvin)      0.03742     0.01483     0.01156
 Rotational constants (GHZ):           0.77964     0.30893     0.24077
 Zero-point vibrational energy     994877.4 (Joules/Mol)
                                  237.78140 (Kcal/Mol)
 Warning -- explicit consideration of  28 degrees of freedom as
           vibrations may cause significant error
 Vibrational temperatures:     20.74    49.48    62.96    79.61    87.25
          (Kelvin)            117.96   125.55   153.45   191.19   215.36
                              284.31   296.34   315.70   349.87   380.64
                              395.36   414.74   422.34   491.79   549.17
                              566.35   576.20   625.60   677.22   700.26
                              711.38   825.26   849.59   913.43  1014.96
                             1072.18  1094.12  1153.34  1178.37  1212.29
                             1237.48  1286.74  1303.85  1354.65  1377.35
                             1384.55  1408.49  1411.84  1443.34  1492.61
                             1509.17  1533.61  1547.42  1582.95  1615.83
                             1647.12  1654.14  1686.47  1701.13  1723.53
                             1739.58  1791.26  1816.21  1855.66  1879.51
                             1902.86  1925.85  1937.91  1968.74  1970.89
                             1992.18  2014.07  2018.52  2025.10  2040.89
                             2049.81  2066.95  2078.86  2081.48  2083.33
                             2169.57  2174.52  2175.87  2182.41  2186.08
                             2189.91  2196.35  2198.99  2206.61  2208.82
                             2213.55  2214.87  2217.15  2219.24  2233.77
                             2567.25  4319.00  4338.35  4354.94  4364.06
                             4372.04  4374.66  4379.89  4382.97  4387.73
                             4394.25  4403.05  4414.79  4417.08  4441.46
                             4457.19  4459.29  4471.63  4472.54  4478.75
                             4483.69  4490.42  4500.30  4551.57  4558.11
                             5012.15  5161.37

 Zero-point correction=                           0.378929 (Hartree/Particle)
 Thermal correction to Energy=                    0.397752
 Thermal correction to Enthalpy=                  0.398696
 Thermal correction to Gibbs Free Energy=         0.329937
 Sum of electronic and zero-point Energies=           -657.368058
 Sum of electronic and thermal Energies=              -657.349235
 Sum of electronic and thermal Enthalpies=            -657.348291
 Sum of electronic and thermal Free Energies=         -657.417050

                     E (Thermal)             CV                S
                      KCal/Mol        Cal/Mol-Kelvin    Cal/Mol-Kelvin
 Total                  249.593             68.658            144.715
 Electronic               0.000              0.000              0.000
 Translational            0.889              2.981             41.989
 Rotational               0.889              2.981             32.983
 Vibrational            247.815             62.696             69.744
 Vibration     1          0.593              1.986              7.284
 Vibration     2          0.594              1.983              5.558
 Vibration     3          0.595              1.980              5.081
 Vibration     4          0.596              1.975              4.617
 Vibration     5          0.597              1.973              4.436
 Vibration     6          0.600              1.961              3.843
 Vibration     7          0.601              1.958              3.720
 Vibration     8          0.606              1.944              3.329
 Vibration     9          0.613              1.920              2.904
 Vibration    10          0.618              1.903              2.676
 Vibration    11          0.637              1.843              2.155
 Vibration    12          0.640              1.831              2.079
 Vibration    13          0.647              1.812              1.964
 Vibration    14          0.659              1.774              1.780
 Vibration    15          0.671              1.738              1.631
 Vibration    16          0.677              1.720              1.566
 Vibration    17          0.685              1.696              1.484
 Vibration    18          0.688              1.686              1.453
 Vibration    19          0.721              1.592              1.204
 Vibration    20          0.751              1.509              1.032
 Vibration    21          0.761              1.484              0.986
 Vibration    22          0.766              1.469              0.961
 Vibration    23          0.795              1.394              0.843
 Vibration    24          0.828              1.315              0.736
 Vibration    25          0.843              1.280              0.692
 Vibration    26          0.850              1.262              0.672
 Vibration    27          0.930              1.088              0.497
 Vibration    28          0.948              1.052              0.466

 Optimization completed.
    -- Stationary point found.
 Normal termination of Gaussian 16 at Thu Dec 10 17:00:38 2020.

 ----------------------------------------------------------------------
 # B3LYP/6-311++G(d,p) empiricaldispersion=gd3bj scf=xqc pop=npa geom=c
 heck
 ----------------------------------------------------------------------

 --------------------------------------
 CID_61485844_JID_5714_Energie_neutraal
 --------------------------------------
 Structure from the checkpoint file:  "JID_5714.chk"
 Charge =  0 Multiplicity = 1

 SCF Done:  E(RB3LYP) =  -657.942534105     A.U. after   14 cycles
 Normal termination of Gaussian 16 at Thu Dec 10 17:09:39 2020.

 ----------------------------------------------------------------------
 # B3LYP/6-311++G(d,p) empiricaldispersion=gd3bj scf=xqc pop=npa geom=c
 heck
 ----------------------------------------------------------------------

 ------------------------------------
 CID_61485844_JID_5714_Energie_kation
 ------------------------------------
 Structure from the checkpoint file:  "JID_5714.chk"
 Charge =  1 Multiplicity = 2

 SCF Done:  E(UB3LYP) =  -657.638367933     A.U. after   27 cycles
 Normal termination of Gaussian 16 at Thu Dec 10 17:29:31 2020.
 Gaussian 16:  ES64L-G16RevA.03 25-Dec-2016

 ----------------------------------------------------------------------
 # B3LYP/6-311++G(d,p) empiricaldispersion=gd3bj scf=xqc pop=npa geom=c
 heck
 ----------------------------------------------------------------------

 -----------------------------------
 CID_61485844_JID_5714_Energie_anion
 -----------------------------------
 Structure from the checkpoint file:  "JID_5714.chk"
 Charge = -1 Multiplicity = 2

                         Standard orientation:
 ---------------------------------------------------------------------
 Center     Atomic      Atomic             Coordinates (Angstroms)
 Number     Number       Type             X           Y           Z
 ---------------------------------------------------------------------
      1          6           0       -4.934024   -1.196159    0.198650
      2          6           0       -3.649662   -1.059474    1.022912
      3          6           0       -2.358760   -1.227450    0.209354
      4          6           0       -2.166618   -0.203523   -0.917765
      5          7           0       -2.161486    1.172619   -0.440382
      6          6           0       -1.098825    2.003915   -0.224359
      7          8           0       -1.235974    3.079060    0.350714
      8          6           0        0.270019    1.566246   -0.748760
      9          7           0        0.771456    0.399732   -0.023261
     10          6           0        2.100977   -0.068826   -0.453809
     11          6           0        3.226225    0.967230   -0.228526
     12          6           0        3.458906    1.346388    1.236977
     13          6           0        2.369239   -1.447069    0.196810
     14          6           0        1.344222   -2.482064   -0.284492
     15          6           0        3.791717   -1.959185   -0.066578
     16          1           0       -5.023139   -0.407401   -0.557693
     17          1           0       -5.821331   -1.136353    0.838097
     18          1           0       -4.964035   -2.158684   -0.326589
     19          1           0       -3.637421   -0.085822    1.531429
     20          1           0       -3.653668   -1.810164    1.823140
     21          1           0       -1.492206   -1.152511    0.875635
     22          1           0       -2.337707   -2.231837   -0.237010
     23          1           0       -1.216245   -0.397189   -1.414265
     24          1           0       -2.958301   -0.306073   -1.670310
     25          1           0       -3.018414    1.527445   -0.032630
     26          1           0        0.199576    1.297335   -1.811204
     27          1           0        0.903139    2.460398   -0.673592
     28          1           0        0.802806    0.619815    0.971447
     29          1           0        2.024772   -0.233444   -1.539657
     30          1           0        4.155691    0.585183   -0.664866
     31          1           0        2.986388    1.873091   -0.797946
     32          1           0        3.749670    0.480153    1.841707
     33          1           0        4.255195    2.092952    1.323128
     34          1           0        2.559672    1.781840    1.688744
     35          1           0        2.247142   -1.329581    1.284540
     36          1           0        1.469658   -2.673715   -1.358583
     37          1           0        1.476156   -3.435827    0.239135
     38          1           0        0.324248   -2.131497   -0.119929
     39          1           0        4.558401   -1.332240    0.398181
     40          1           0        3.909080   -2.973675    0.330271
     41          1           0        3.998385   -2.001315   -1.143875
 ---------------------------------------------------------------------

 SCF Done:  E(UB3LYP) =  -657.930147644     A.U. after   33 cycles
 SCF Done:  E(UB3LYP) =  -657.930147644     a.u. after    1 cycles

 The electronic state is 2-A.
 Alpha  occ. eigenvalues --  -18.99821 -14.24554 -14.21551 -10.18285 -10.11421
 Alpha  occ. eigenvalues --  -10.11381 -10.11045 -10.08476 -10.07843 -10.07683
 Alpha  occ. eigenvalues --  -10.07579 -10.07447 -10.06909 -10.06831 -10.06082
 Alpha  occ. eigenvalues --   -0.94862  -0.83666  -0.82393  -0.71734  -0.70445
 Alpha  occ. eigenvalues --   -0.67370  -0.63767  -0.62440  -0.59103  -0.57376
 Alpha  occ. eigenvalues --   -0.56468  -0.51679  -0.50145  -0.47976  -0.46954
 Alpha  occ. eigenvalues --   -0.41598  -0.40530  -0.39269  -0.37710  -0.37259
 Alpha  occ. eigenvalues --   -0.36506  -0.36366  -0.35304  -0.33209  -0.32704
 Alpha  occ. eigenvalues --   -0.32554  -0.31759  -0.31066  -0.30354  -0.29764
 Alpha  occ. eigenvalues --   -0.29708  -0.29311  -0.28391  -0.27656  -0.26564
 Alpha  occ. eigenvalues --   -0.25644  -0.24725  -0.24670  -0.24631  -0.23915
 Alpha  occ. eigenvalues --   -0.23727  -0.22695  -0.16980  -0.16425  -0.14473
 Alpha  occ. eigenvalues --    0.03968
 Alpha virt. eigenvalues --    0.05433   0.06412   0.06725   0.07591   0.07758
 Alpha virt. eigenvalues --    0.08075   0.09227   0.09356   0.09467   0.09811
 Alpha virt. eigenvalues --    0.10088   0.10412   0.10906   0.11212   0.11902

  Beta  occ. eigenvalues --  -18.99819 -14.24544 -14.21547 -10.18285 -10.11402
  Beta  occ. eigenvalues --  -10.11369 -10.11037 -10.08469 -10.07828 -10.07669
  Beta  occ. eigenvalues --  -10.07567 -10.07426 -10.06867 -10.06802 -10.06063
  Beta  occ. eigenvalues --   -0.94858  -0.83652  -0.82379  -0.71712  -0.70412
  Beta  occ. eigenvalues --   -0.67339  -0.63727  -0.62408  -0.59054  -0.57335
  Beta  occ. eigenvalues --   -0.56407  -0.51633  -0.50101  -0.47930  -0.46913
  Beta  occ. eigenvalues --   -0.41578  -0.40493  -0.39240  -0.37685  -0.37231
  Beta  occ. eigenvalues --   -0.36478  -0.36333  -0.35280  -0.33184  -0.32681
  Beta  occ. eigenvalues --   -0.32523  -0.31733  -0.31033  -0.30318  -0.29728
  Beta  occ. eigenvalues --   -0.29675  -0.29284  -0.28370  -0.27627  -0.26537
  Beta  occ. eigenvalues --   -0.25615  -0.24684  -0.24638  -0.24601  -0.23880
  Beta  occ. eigenvalues --   -0.23698  -0.22671  -0.16972  -0.16410  -0.14464
  Beta virt. eigenvalues --    0.05910   0.06384   0.06864   0.07172   0.08049
  Beta virt. eigenvalues --    0.08227   0.08458   0.09459   0.09616   0.09816
  Beta virt. eigenvalues --    0.10036   0.10412   0.10608   0.11288   0.11568

 Mulliken charges and spin densities:
               1          2
     1  C    1.173257  -1.766979
     2  C   -1.044887   0.664559
     3  C   -0.155746   0.020699
     4  C    0.902142  -0.997365
     5  N   -0.271311   0.110261
     6  C   -0.054356  -0.120217
     7  O   -0.318954   0.008468
     8  C    0.059459  -0.410797
     9  N    0.024085   0.019477
    10  C    0.625600  -0.945497
    11  C   -0.488179   0.198629
    12  C    0.309695  -0.943211
    13  C   -1.407452   1.885980
    14  C    0.446473  -1.044313
    15  C    0.563552  -1.313136
    16  H   -0.203435   0.337138
    17  H   -0.341351   0.484232
    18  H   -0.223241   0.372758
    19  H    0.132386   0.013840
    20  H   -0.269907   0.421202
    21  H   -0.017256   0.155785
    22  H   -0.022212   0.146763
    23  H    0.119034   0.059542
    24  H   -0.263530   0.475060
    25  H    0.224137   0.085064
    26  H   -0.101213   0.270626
    27  H    0.208276  -0.046508
    28  H    0.249236  -0.006644
    29  H    0.042503   0.168281
    30  H   -0.185701   0.349402
    31  H   -0.100381   0.254576
    32  H   -0.059643   0.210425
    33  H   -0.219006   0.367885
    34  H    0.095787   0.052664
    35  H    0.003861   0.146230
    36  H   -0.106280   0.239105
    37  H   -0.103132   0.240182
    38  H    0.174470  -0.002529
    39  H   -0.103740   0.246933
    40  H   -0.105319   0.243291
    41  H   -0.187722   0.348139
 Sum of Mulliken charges =  -1.00000   1.00000

 Dipole moment (field-independent basis, Debye):
    X=              1.5319    Y=              1.4085    Z=              0.1927  Tot=              2.0899
 Quadrupole moment (field-independent basis, Debye-Ang):
   XX=           -205.0906   YY=           -157.3004   ZZ=           -131.1973
   XY=             -4.1917   XZ=              0.8073   YZ=             -3.2771

 Summary of Natural Population Analysis:

                                       Natural Population
                Natural  -----------------------------------------------
    Atom  No    Charge         Core      Valence    Rydberg      Total
 -----------------------------------------------------------------------
      C    1   -0.28841      0.99967     2.28376    0.00498     3.28841
      C    2   -0.19347      0.99964     2.18511    0.00871     3.19347
      C    3   -0.19452      0.99962     2.18675    0.00815     3.19452
      C    4   -0.09049      0.99960     2.08000    0.01089     3.09049
      N    5   -0.31469      0.99967     2.80535    0.00968     3.81469
      C    6    0.33963      0.99967     1.63892    0.02178     2.66037
      O    7   -0.32645      0.99988     3.32076    0.00582     4.32645
      C    8   -0.12795      0.99959     2.11848    0.00988     3.12795
      N    9   -0.34446      0.99974     2.83449    0.01024     3.84446
      C   10   -0.00179      0.99957     1.98931    0.01291     3.00179
      C   11   -0.20105      0.99962     2.19299    0.00844     3.20105
      C   12   -0.29221      0.99966     2.28644    0.00610     3.29221
      C   13   -0.11464      0.99959     2.10504    0.01000     3.11464
      C   14   -0.28340      0.99964     2.27769    0.00606     3.28340
      C   15   -0.28625      0.99965     2.28081    0.00580     3.28625
      H   16    0.09435      0.00000     0.40439    0.00125     0.40565
      H   17    0.10067      0.00000     0.39817    0.00116     0.39933
      H   18    0.09843      0.00000     0.40016    0.00140     0.40157
      H   19    0.09151      0.00000     0.40715    0.00135     0.40849
      H   20    0.09883      0.00000     0.40014    0.00103     0.40117
      H   21    0.10205      0.00000     0.39618    0.00176     0.39795
      H   22    0.09813      0.00000     0.40056    0.00131     0.40187
      H   23    0.10805      0.00000     0.39026    0.00169     0.39195
      H   24    0.09405      0.00000     0.40471    0.00124     0.40595
      H   25    0.19264      0.00000     0.30492    0.00244     0.30736
      H   26    0.09918      0.00000     0.39957    0.00125     0.40082
      H   27    0.09504      0.00000     0.40350    0.00146     0.40496
      H   28    0.17267      0.00000     0.32478    0.00255     0.32733
      H   29    0.09226      0.00000     0.40614    0.00160     0.40774
      H   30    0.10180      0.00000     0.39702    0.00118     0.39820
      H   31    0.09685      0.00000     0.40203    0.00112     0.40315
      H   32    0.09777      0.00000     0.40133    0.00091     0.40223
      H   33    0.10203      0.00000     0.39718    0.00079     0.39797
      H   34    0.09494      0.00000     0.40396    0.00110     0.40506
      H   35    0.09139      0.00000     0.40682    0.00180     0.40861
      H   36    0.09488      0.00000     0.40404    0.00108     0.40512
      H   37    0.09705      0.00000     0.40214    0.00081     0.40295
      H   38    0.10699      0.00000     0.39137    0.00164     0.39301
      H   39    0.10036      0.00000     0.39858    0.00106     0.39964
      H   40    0.10045      0.00000     0.39867    0.00088     0.39955
      H   41    0.09778      0.00000     0.40113    0.00109     0.40222
 =======================================================================
   * Total *   -0.00000     14.99480    44.83079    0.17441    60.00000

 Normal termination of Gaussian 16 at Thu Dec 10 17:52:24 2020.
