 Gaussian 16, Revision A.03,

 -----------------------------------------------------------
 # opt freq B3LYP/6-31G(d) empiricaldispersion=gd3bj scf=xqc
 -----------------------------------------------------------

 -------------------------------
 CID_113321392_JID_8933_neutraal
 -------------------------------
 Symbolic Z-matrix:
 Charge =  0 Multiplicity = 1

 SCF Done:  E(RB3LYP) =  -1105.03063670     A.U. after   15 cycles
 SCF Done:  E(RB3LYP) =  -1105.03894461     A.U. after   13 cycles
 SCF Done:  E(RB3LYP) =  -1105.04031077     A.U. after   15 cycles
 SCF Done:  E(RB3LYP) =  -1105.04099069     A.U. after   13 cycles
 SCF Done:  E(RB3LYP) =  -1105.04095368     A.U. after   12 cycles
 SCF Done:  E(RB3LYP) =  -1105.04086593     A.U. after   12 cycles
 SCF Done:  E(RB3LYP) =  -1105.04111212     A.U. after   12 cycles
 SCF Done:  E(RB3LYP) =  -1105.04113058     A.U. after   10 cycles
 SCF Done:  E(RB3LYP) =  -1105.04114157     A.U. after    8 cycles
 SCF Done:  E(RB3LYP) =  -1105.04115426     A.U. after   10 cycles
 SCF Done:  E(RB3LYP) =  -1105.04115667     A.U. after    8 cycles
 SCF Done:  E(RB3LYP) =  -1105.04119219     A.U. after   12 cycles
 SCF Done:  E(RB3LYP) =  -1105.04119675     A.U. after   10 cycles
 SCF Done:  E(RB3LYP) =  -1105.04119691     A.U. after    7 cycles
 SCF Done:  E(RB3LYP) =  -1105.04119696     A.U. after    7 cycles
 Optimization completed.
    -- Stationary point found.
 Normal termination of Gaussian 16 at Fri Dec 11 23:08:49 2020.

 --------------------------------------------------------------------
 #N Geom=AllCheck Guess=TCheck SCRF=Check GenChk RB3LYP/6-31G(d) Freq
 --------------------------------------------------------------------

 Structure from the checkpoint file:  "JID_8933.chk"
 -------------------------------
 CID_113321392_JID_8933_neutraal
 -------------------------------
 Charge =  0 Multiplicity = 1

 SCF Done:  E(RB3LYP) =  -1105.04119696     A.U. after    1 cycles

  Exact polarizability: 204.744 -12.363 194.855  30.393  15.400 124.803
 Approx polarizability: 295.299 -29.192 347.594  62.948  38.240 215.926

                      1                      2                      3
                      A                      A                      A
 Frequencies --     25.9302                34.9566                47.4085
 Red. masses --      5.0942                 4.7502                 4.3905
 Frc consts  --      0.0020                 0.0034                 0.0058
 IR Inten    --      0.2190                 1.2027                 2.4610

                      4                      5                      6
                      A                      A                      A
 Frequencies --     84.1274                89.7528                93.2768
 Red. masses --      4.9084                 4.0704                 4.6150
 Frc consts  --      0.0205                 0.0193                 0.0237
 IR Inten    --      0.7011                 0.3117                 0.1328

                      7                      8                      9
                      A                      A                      A
 Frequencies --    130.9918               141.3217               174.3353
 Red. masses --      2.7174                 1.3030                 5.5059
 Frc consts  --      0.0275                 0.0153                 0.0986
 IR Inten    --      0.5135                 0.8054                 1.3866

                     10                     11                     12
                      A                      A                      A
 Frequencies --    206.2894               275.7706               297.0936
 Red. masses --      3.9778                 4.2302                 4.7132
 Frc consts  --      0.0997                 0.1895                 0.2451
 IR Inten    --      2.3761                 0.8938                 1.7846

                     13                     14                     15
                      A                      A                      A
 Frequencies --    318.3427               325.1163               350.0465
 Red. masses --      3.9231                 6.0143                 2.7327
 Frc consts  --      0.2342                 0.3746                 0.1973
 IR Inten    --      1.7767                 0.8801                 2.3612

                     16                     17                     18
                      A                      A                      A
 Frequencies --    409.0474               420.1330               428.0469
 Red. masses --      2.3961                 1.9451                 1.9149
 Frc consts  --      0.2362                 0.2023                 0.2067
 IR Inten    --      3.2301                19.5715                25.9723

                     19                     20                     21
                      A                      A                      A
 Frequencies --    463.3533               485.1173               490.6896
 Red. masses --      3.0460                 4.4889                 3.5115
 Frc consts  --      0.3853                 0.6224                 0.4981
 IR Inten    --      5.8243                 8.1716                 2.6190

                     22                     23                     24
                      A                      A                      A
 Frequencies --    500.8469               527.1808               545.8620
 Red. masses --      4.2470                 4.3224                 4.3064
 Frc consts  --      0.6277                 0.7078                 0.7560
 IR Inten    --      1.0001                 7.4634                 2.4939

                     25                     26                     27
                      A                      A                      A
 Frequencies --    606.4603               633.2213               648.8115
 Red. masses --      5.7357                 2.1976                 4.4197
 Frc consts  --      1.2429                 0.5192                 1.0962
 IR Inten    --      5.1434                65.9470                16.2936

                     28                     29                     30
                      A                      A                      A
 Frequencies --    652.0865               663.2376               742.1534
 Red. masses --      7.1643                 5.0777                 2.2653
 Frc consts  --      1.7949                 1.3160                 0.7351
 IR Inten    --     13.3781                 7.4897                13.3537

                     31                     32                     33
                      A                      A                      A
 Frequencies --    754.8761               762.4065               785.5012
 Red. masses --      2.1349                 2.6051                 1.9849
 Frc consts  --      0.7168                 0.8922                 0.7216
 IR Inten    --    170.6901                18.2098                12.9174

                     34                     35                     36
                      A                      A                      A
 Frequencies --    804.8081               812.5884               845.3344
 Red. masses --      3.2555                 5.5642                 3.8947
 Frc consts  --      1.2424                 2.1647                 1.6398
 IR Inten    --     47.1059                 8.1012                 2.5741

                     37                     38                     39
                      A                      A                      A
 Frequencies --    870.2460               882.3482               913.9405
 Red. masses --      1.5323                 1.3299                 1.7007
 Frc consts  --      0.6837                 0.6100                 0.8370
 IR Inten    --     27.5202                 0.2665                 4.8062

                     40                     41                     42
                      A                      A                      A
 Frequencies --    920.5204               948.4382               969.8659
 Red. masses --      1.2504                 1.3591                 1.3658
 Frc consts  --      0.6243                 0.7203                 0.7569
 IR Inten    --     16.3840                 0.9769                 0.6075

                     43                     44                     45
                      A                      A                      A
 Frequencies --    986.5250               994.7810              1022.2416
 Red. masses --      1.2672                 1.3347                 1.5814
 Frc consts  --      0.7267                 0.7782                 0.9736
 IR Inten    --      0.0299                 0.2438                 1.7885

                     46                     47                     48
                      A                      A                      A
 Frequencies --   1039.0932              1076.7787              1082.3671
 Red. masses --      4.3818                 1.5150                 2.1889
 Frc consts  --      2.7875                 1.0350                 1.5109
 IR Inten    --      9.5487                 4.1602                 2.3933

                     49                     50                     51
                      A                      A                      A
 Frequencies --   1110.7943              1128.8587              1136.8462
 Red. masses --      2.7355                 1.7159                 2.6876
 Frc consts  --      1.9886                 1.2883                 2.0465
 IR Inten    --     24.4670                 3.2018                15.2713

                     52                     53                     54
                      A                      A                      A
 Frequencies --   1166.4111              1180.2945              1189.4582
 Red. masses --      1.2917                 1.4535                 1.1617
 Frc consts  --      1.0354                 1.1930                 0.9684
 IR Inten    --      0.4507                16.5294                 0.1517

                     55                     56                     57
                      A                      A                      A
 Frequencies --   1198.8905              1216.4695              1237.7042
 Red. masses --      1.0973                 2.2624                 2.0572
 Frc consts  --      0.9292                 1.9726                 1.8568
 IR Inten    --      0.2009                 3.3643                64.0872

                     58                     59                     60
                      A                      A                      A
 Frequencies --   1257.4737              1281.9399              1306.9942
 Red. masses --      2.8331                 1.3088                 8.8497
 Frc consts  --      2.6395                 1.2672                 8.9069
 IR Inten    --      1.6867                29.4927                11.4837

                     61                     62                     63
                      A                      A                      A
 Frequencies --   1332.5174              1335.2681              1361.5605
 Red. masses --      1.4850                 1.4180                 4.6310
 Frc consts  --      1.5536                 1.4896                 5.0583
 IR Inten    --      1.4585                 3.1048                 0.7700

                     64                     65                     66
                      A                      A                      A
 Frequencies --   1402.8203              1447.2739              1453.3986
 Red. masses --      2.9679                 1.2425                 2.2391
 Frc consts  --      3.4412                 1.5334                 2.7867
 IR Inten    --     12.6580                 2.2044               173.2952

                     67                     68                     69
                      A                      A                      A
 Frequencies --   1493.0163              1505.5425              1517.4556
 Red. masses --      1.7237                 1.2321                 1.8659
 Frc consts  --      2.2638                 1.6454                 2.5315
 IR Inten    --      1.0813                 6.8737                 2.1719

                     70                     71                     72
                      A                      A                      A
 Frequencies --   1520.1278              1532.5883              1545.6543
 Red. masses --      1.2292                 1.2934                 1.9667
 Frc consts  --      1.6735                 1.7900                 2.7683
 IR Inten    --      4.0223                 8.8873                 7.6202

                     73                     74                     75
                      A                      A                      A
 Frequencies --   1599.6044              1630.8764              1638.3289
 Red. masses --      6.1088                 6.0618                 5.7906
 Frc consts  --      9.2095                 9.4993                 9.1575
 IR Inten    --     30.5316                 9.9663                 0.1152

                     76                     77                     78
                      A                      A                      A
 Frequencies --   1656.3722              1667.9952              1735.3983
 Red. masses --      1.3140                 5.6796                 4.5275
 Frc consts  --      2.1240                 9.3102                 8.0335
 IR Inten    --     71.0598                 1.4957               128.4103

                     79                     80                     81
                      A                      A                      A
 Frequencies --   3050.0713              3091.1152              3110.3902
 Red. masses --      1.0417                 1.0629                 1.0947
 Frc consts  --      5.7098                 5.9836                 6.2401
 IR Inten    --     22.6198                16.5293                10.8122

                     82                     83                     84
                      A                      A                      A
 Frequencies --   3136.4500              3155.8821              3179.6299
 Red. masses --      1.1019                 1.1028                 1.0863
 Frc consts  --      6.3864                 6.4713                 6.4709
 IR Inten    --     11.4951                 5.8900                 6.2522

                     85                     86                     87
                      A                      A                      A
 Frequencies --   3185.2281              3198.0554              3207.1173
 Red. masses --      1.0884                 1.0921                 1.0896
 Frc consts  --      6.5062                 6.5811                 6.6032
 IR Inten    --      2.9407                23.5717                 2.8814

                     88                     89                     90
                      A                      A                      A
 Frequencies --   3208.1313              3211.9645              3227.7865
 Red. masses --      1.0919                 1.0975                 1.0939
 Frc consts  --      6.6215                 6.6713                 6.7148
 IR Inten    --      8.1598                23.6763                 4.8073

                     91                     92                     93
                      A                      A                      A
 Frequencies --   3458.0536              3533.3924              3636.0360
 Red. masses --      1.0730                 1.0476                 1.0977
 Frc consts  --      7.5601                 7.7057                 8.5505
 IR Inten    --      4.0170                16.7862                11.8569

 - Thermochemistry -
 -------------------
 Temperature   298.150 Kelvin.  Pressure   1.00000 Atm.
 Atom     1 has atomic number  6 and mass  12.00000

 Molecular mass:   257.09867 amu.
 Principal axes and moments of inertia in atomic units:
                           1         2         3
     Eigenvalues --  3002.794746509.391128116.93883
           X            0.99994   0.00997   0.00420
           Y           -0.01004   0.99978   0.01814
           Z           -0.00402  -0.01818   0.99983
 This molecule is an asymmetric top.
 Rotational symmetry number  1.
 Warning -- assumption of classical behavior for rotation
           may cause significant error
 Rotational temperatures (Kelvin)      0.02884     0.01331     0.01067
 Rotational constants (GHZ):           0.60102     0.27725     0.22234
 Zero-point vibrational energy     703768.5 (Joules/Mol)
                                  168.20471 (Kcal/Mol)
 Warning -- explicit consideration of  25 degrees of freedom as
           vibrations may cause significant error
 Vibrational temperatures:     37.31    50.29    68.21   121.04   129.13
          (Kelvin)            134.20   188.47   203.33   250.83   296.80
                              396.77   427.45   458.02   467.77   503.64
                              588.53   604.48   615.86   666.66   697.98
                              705.99   720.61   758.50   785.37   872.56
                              911.06   933.49   938.21   954.25  1067.79
                             1086.10  1096.93  1130.16  1157.94  1169.13
                             1216.25  1252.09  1269.50  1314.96  1324.42
                             1364.59  1395.42  1419.39  1431.27  1470.78
                             1495.02  1549.24  1557.28  1598.19  1624.18
                             1635.67  1678.21  1698.18  1711.37  1724.94
                             1750.23  1780.78  1809.22  1844.43  1880.47
                             1917.20  1921.15  1958.98  2018.35  2082.30
                             2091.12  2148.12  2166.14  2183.28  2187.12
                             2205.05  2223.85  2301.47  2346.47  2357.19
                             2383.15  2399.87  2496.85  4388.37  4447.43
                             4475.16  4512.65  4540.61  4574.78  4582.83
                             4601.29  4614.33  4615.79  4621.30  4644.06
                             4975.37  5083.76  5231.44

 Zero-point correction=                           0.268051 (Hartree/Particle)
 Thermal correction to Energy=                    0.284544
 Thermal correction to Enthalpy=                  0.285488
 Thermal correction to Gibbs Free Energy=         0.222475
 Sum of electronic and zero-point Energies=          -1104.773146
 Sum of electronic and thermal Energies=             -1104.756653
 Sum of electronic and thermal Enthalpies=           -1104.755708
 Sum of electronic and thermal Free Energies=        -1104.818722

                     E (Thermal)             CV                S
                      KCal/Mol        Cal/Mol-Kelvin    Cal/Mol-Kelvin
 Total                  178.554             63.537            132.622
 Electronic               0.000              0.000              0.000
 Translational            0.889              2.981             42.533
 Rotational               0.889              2.981             33.428
 Vibrational            176.777             57.576             56.662
 Vibration     1          0.593              1.985              6.119
 Vibration     2          0.594              1.982              5.526
 Vibration     3          0.595              1.979              4.923
 Vibration     4          0.601              1.960              3.792
 Vibration     5          0.602              1.956              3.665
 Vibration     6          0.602              1.954              3.590
 Vibration     7          0.612              1.922              2.931
 Vibration     8          0.615              1.912              2.786
 Vibration     9          0.627              1.874              2.388
 Vibration    10          0.641              1.831              2.076
 Vibration    11          0.677              1.718              1.560
 Vibration    12          0.691              1.679              1.433
 Vibration    13          0.705              1.639              1.319
 Vibration    14          0.709              1.625              1.284
 Vibration    15          0.727              1.575              1.166
 Vibration    16          0.773              1.451              0.930
 Vibration    17          0.783              1.426              0.892
 Vibration    18          0.790              1.409              0.865
 Vibration    19          0.821              1.331              0.756
 Vibration    20          0.841              1.283              0.696
 Vibration    21          0.846              1.271              0.682
 Vibration    22          0.856              1.248              0.656
 Vibration    23          0.882              1.190              0.594
 Vibration    24          0.901              1.149              0.553
 Vibration    25          0.965              1.018              0.439

 Optimization completed.
    -- Stationary point found.
 Normal termination of Gaussian 16 at Fri Dec 11 23:25:47 2020.

 ----------------------------------------------------------------------
 # B3LYP/6-311++G(d,p) empiricaldispersion=gd3bj scf=xqc pop=npa geom=c
 heck
 ----------------------------------------------------------------------

 ---------------------------------------
 CID_113321392_JID_8933_Energie_neutraal
 ---------------------------------------
 Structure from the checkpoint file:  "JID_8933.chk"
 Charge =  0 Multiplicity = 1

 SCF Done:  E(RB3LYP) =  -1105.26096346     A.U. after   16 cycles
 Normal termination of Gaussian 16 at Fri Dec 11 23:33:14 2020.

 ----------------------------------------------------------------------
 # B3LYP/6-311++G(d,p) empiricaldispersion=gd3bj scf=xqc pop=npa geom=c
 heck
 ----------------------------------------------------------------------

 -------------------------------------
 CID_113321392_JID_8933_Energie_kation
 -------------------------------------
 Structure from the checkpoint file:  "JID_8933.chk"
 Charge =  1 Multiplicity = 2

 SCF Done:  E(UB3LYP) =  -1104.96297447     A.U. after   33 cycles
 SCF Done:  E(UB3LYP) =  -1104.96297447     a.u. after    1 cycles
 Normal termination of Gaussian 16 at Fri Dec 11 23:55:22 2020.
 Gaussian 16:  ES64L-G16RevA.03 25-Dec-2016

 ----------------------------------------------------------------------
 # B3LYP/6-311++G(d,p) empiricaldispersion=gd3bj scf=xqc pop=npa geom=c
 heck
 ----------------------------------------------------------------------

 ------------------------------------
 CID_113321392_JID_8933_Energie_anion
 ------------------------------------
 Structure from the checkpoint file:  "JID_8933.chk"
 Charge = -1 Multiplicity = 2

                         Standard orientation:
 ---------------------------------------------------------------------
 Center     Atomic      Atomic             Coordinates (Angstroms)
 Number     Number       Type             X           Y           Z
 ---------------------------------------------------------------------
      1          6           0       -0.869304   -0.487846    2.271095
      2          6           0       -1.729030   -0.882608    1.093029
      3          6           0       -1.801493   -2.229679    0.714981
      4          6           0       -2.577182   -2.644820   -0.364281
      5          6           0       -3.312206   -1.705763   -1.089367
      6          6           0       -3.250938   -0.364023   -0.726596
      7          6           0       -2.466386    0.062802    0.352555
      8          6           0       -2.380113    1.533737    0.645442
      9         16           0       -1.302720    2.470208   -0.561921
     10          6           0        0.214339    1.539278   -0.432780
     11          6           0        0.357763    0.294050   -1.069634
     12          7           0        1.456143   -0.451930   -0.978347
     13          6           0        2.491047    0.011920   -0.257751
     14          6           0        2.452625    1.246539    0.399665
     15          6           0        1.295197    2.017050    0.311340
     16          6           0        3.679125   -0.901156   -0.180856
     17          7           0        3.644566   -2.145849   -0.470275
     18          7           0        4.847904   -0.322728    0.313718
     19          1           0       -0.372814   -1.365269    2.694526
     20          1           0       -0.090437    0.227330    1.987896
     21          1           0       -1.461132   -0.025540    3.070901
     22          1           0       -1.228487   -2.962119    1.277396
     23          1           0       -2.607530   -3.695601   -0.637680
     24          1           0       -3.924642   -2.015801   -1.931048
     25          1           0       -3.802891    0.377889   -1.298483
     26          1           0       -3.352885    2.020715    0.528638
     27          1           0       -2.017649    1.740311    1.652831
     28          1           0       -0.456790   -0.107625   -1.665195
     29          1           0        3.292640    1.574000    1.001787
     30          1           0        1.218600    2.970137    0.825672
     31          1           0        2.688129   -2.385303   -0.746194
     32          1           0        5.066707    0.592641   -0.063018
     33          1           0        5.631738   -0.962435    0.235989
 ---------------------------------------------------------------------

 SCF Done:  E(UB3LYP) =  -1105.27571081     A.U. after   29 cycles

 The electronic state is 2-A.
 Alpha  occ. eigenvalues --  -88.71550 -14.18912 -14.15358 -14.12163 -10.08695
 Alpha  occ. eigenvalues --  -10.08192 -10.07728 -10.07491 -10.07258 -10.07162
 Alpha  occ. eigenvalues --  -10.06995 -10.06863 -10.06366 -10.05953 -10.04741
 Alpha  occ. eigenvalues --  -10.04640 -10.04012 -10.03854  -7.80068  -5.76460
 Alpha  occ. eigenvalues --   -5.76104  -5.75461  -0.81474  -0.78771  -0.75995
 Alpha  occ. eigenvalues --   -0.70857  -0.69252  -0.66911  -0.66057  -0.63504
 Alpha  occ. eigenvalues --   -0.60575  -0.57990  -0.54052  -0.50046  -0.49253
 Alpha  occ. eigenvalues --   -0.48010  -0.46270  -0.43755  -0.40774  -0.40241
 Alpha  occ. eigenvalues --   -0.37522  -0.36254  -0.34998  -0.33500  -0.32542
 Alpha  occ. eigenvalues --   -0.31939  -0.31593  -0.30619  -0.30462  -0.29706
 Alpha  occ. eigenvalues --   -0.28482  -0.28232  -0.26971  -0.26369  -0.25922
 Alpha  occ. eigenvalues --   -0.24391  -0.23839  -0.23729  -0.22349  -0.20142
 Alpha  occ. eigenvalues --   -0.15847  -0.15066  -0.13528  -0.13031  -0.12448
 Alpha  occ. eigenvalues --   -0.12159  -0.10888  -0.09983   0.03977
 Alpha virt. eigenvalues --    0.07365   0.07792   0.08275   0.08502   0.08835
 Alpha virt. eigenvalues --    0.09327   0.10273   0.10620   0.10911   0.11078
 Alpha virt. eigenvalues --    0.12269   0.12708   0.13168   0.13283   0.13320

  Beta  occ. eigenvalues --  -88.71541 -14.18894 -14.15133 -14.11902 -10.08655
  Beta  occ. eigenvalues --  -10.08049 -10.07688 -10.07472 -10.07252 -10.07134
  Beta  occ. eigenvalues --  -10.06991 -10.06872 -10.06416 -10.05956 -10.04425
  Beta  occ. eigenvalues --  -10.04238 -10.03920 -10.03822  -7.80055  -5.76434
  Beta  occ. eigenvalues --   -5.76108  -5.75450  -0.81132  -0.78430  -0.75933
  Beta  occ. eigenvalues --   -0.70508  -0.68959  -0.66771  -0.65749  -0.63179
  Beta  occ. eigenvalues --   -0.60298  -0.57918  -0.53682  -0.49830  -0.49143
  Beta  occ. eigenvalues --   -0.47828  -0.46101  -0.43464  -0.40656  -0.40202
  Beta  occ. eigenvalues --   -0.37474  -0.36101  -0.34927  -0.33251  -0.32317
  Beta  occ. eigenvalues --   -0.31793  -0.31564  -0.30544  -0.30297  -0.29622
  Beta  occ. eigenvalues --   -0.28349  -0.27922  -0.26665  -0.25827  -0.25375
  Beta  occ. eigenvalues --   -0.24249  -0.23790  -0.23436  -0.21785  -0.19790
  Beta  occ. eigenvalues --   -0.14928  -0.14819  -0.13015  -0.12278  -0.12021
  Beta  occ. eigenvalues --   -0.11687  -0.10148  -0.09171
  Beta virt. eigenvalues --    0.07322   0.07887   0.08184   0.08431   0.08770
  Beta virt. eigenvalues --    0.09173   0.10037   0.10403   0.10750   0.10903
  Beta virt. eigenvalues --    0.11309   0.12218   0.12709   0.13113   0.13259

 Mulliken charges and spin densities:
               1          2
     1  C   -0.796529   0.011853
     2  C    0.675355   0.074023
     3  C   -0.304786  -0.008168
     4  C   -0.424701   0.015324
     5  C   -0.287675   0.033674
     6  C   -0.402854  -0.076259
     7  C    0.688529   0.121149
     8  C   -0.648288  -0.208944
     9  S   -0.241741   0.079979
    10  C    0.498285   0.160413
    11  C   -0.223951  -0.030285
    12  N   -0.026856   0.103658
    13  C   -0.174649   0.270251
    14  C   -0.320112   0.014893
    15  C   -0.520125   0.195423
    16  C   -0.214754  -0.036104
    17  N   -0.427172   0.152706
    18  N   -0.353811   0.008082
    19  H    0.122434   0.002156
    20  H    0.227948  -0.004010
    21  H    0.134738   0.011849
    22  H    0.138992   0.003605
    23  H    0.142327  -0.002235
    24  H    0.137730   0.004580
    25  H    0.124994   0.012327
    26  H    0.076630   0.104671
    27  H    0.231029  -0.015948
    28  H    0.205097   0.006464
    29  H    0.139845   0.016454
    30  H    0.140234  -0.012522
    31  H    0.213087  -0.005319
    32  H    0.199645  -0.001314
    33  H    0.271104  -0.002424
 Sum of Mulliken charges =  -1.00000   1.00000

 Dipole moment (field-independent basis, Debye):
    X=             -4.8913    Y=              1.3812    Z=              2.0790  Tot=              5.4914
 Quadrupole moment (field-independent basis, Debye-Ang):
   XX=           -155.1450   YY=           -142.2429   ZZ=           -126.6211
   XY=             18.5487   XZ=              3.4974   YZ=              0.8104

 Summary of Natural Population Analysis:

                                       Natural Population
                Natural  -----------------------------------------------
    Atom  No    Charge         Core      Valence    Rydberg      Total
 -----------------------------------------------------------------------
      C    1   -0.29787      0.99963     2.29350    0.00474     3.29787
      C    2   -0.00264      0.99947     1.99257    0.01060     3.00264
      C    3   -0.09882      0.99952     2.09120    0.00811     3.09882
      C    4   -0.09863      0.99957     2.09023    0.00883     3.09863
      C    5   -0.10933      0.99957     2.10100    0.00877     3.10933
      C    6   -0.09429      0.99952     2.08551    0.00926     3.09429
      C    7   -0.02231      0.99946     2.01154    0.01131     3.02231
      C    8   -0.23410      0.99954     2.22219    0.01236     3.23410
      S    9    0.08940      4.99957     2.89198    0.01904     7.91060
      C   10   -0.07419      0.99938     2.06090    0.01391     3.07419
      C   11    0.01978      0.99952     1.96593    0.01477     2.98022
      N   12   -0.21017      0.99967     2.69812    0.01237     3.71017
      C   13    0.12798      0.99948     1.85424    0.01830     2.87202
      C   14   -0.13247      0.99953     2.12537    0.00757     3.13247
      C   15   -0.05993      0.99950     2.05046    0.00997     3.05993
      C   16    0.20864      0.99964     1.77515    0.01657     2.79136
      N   17   -0.32804      0.99971     2.81847    0.00986     3.82804
      N   18   -0.41102      0.99972     2.90235    0.00895     3.91102
      H   19    0.10066      0.00000     0.39860    0.00075     0.39934
      H   20    0.11938      0.00000     0.37961    0.00101     0.38062
      H   21    0.09806      0.00000     0.40106    0.00089     0.40194
      H   22    0.09711      0.00000     0.40168    0.00121     0.40289
      H   23    0.09582      0.00000     0.40325    0.00094     0.40418
      H   24    0.09563      0.00000     0.40343    0.00094     0.40437
      H   25    0.09884      0.00000     0.39973    0.00143     0.40116
      H   26    0.10213      0.00000     0.39627    0.00160     0.39787
      H   27    0.10145      0.00000     0.39719    0.00136     0.39855
      H   28    0.09088      0.00000     0.40765    0.00146     0.40912
      H   29    0.09877      0.00000     0.39997    0.00126     0.40123
      H   30    0.09498      0.00000     0.40399    0.00104     0.40502
      H   31    0.17308      0.00000     0.32506    0.00186     0.32692
      H   32    0.17898      0.00000     0.31943    0.00159     0.32102
      H   33    0.18228      0.00000     0.31578    0.00193     0.31772
 =======================================================================
   * Total *    0.00000     21.99201    45.78342    0.22457    68.00000

 Normal termination of Gaussian 16 at Sat Dec 12 00:14:25 2020.
