 Gaussian 16, Revision A.03,

 -----------------------------------------------------------
 # opt freq B3LYP/6-31G(d) empiricaldispersion=gd3bj scf=xqc
 -----------------------------------------------------------

 ------------------------------
 CID_63179083_JID_3740_neutraal
 ------------------------------
 Symbolic Z-matrix:
 Charge =  0 Multiplicity = 1

 SCF Done:  E(RB3LYP) =  -569.205000732     A.U. after   15 cycles
 SCF Done:  E(RB3LYP) =  -569.211742503     A.U. after   12 cycles
 SCF Done:  E(RB3LYP) =  -569.212598746     A.U. after   13 cycles
 SCF Done:  E(RB3LYP) =  -569.213025396     A.U. after   13 cycles
 SCF Done:  E(RB3LYP) =  -569.213462205     A.U. after   13 cycles
 SCF Done:  E(RB3LYP) =  -569.213795436     A.U. after   12 cycles
 SCF Done:  E(RB3LYP) =  -569.213879234     A.U. after   12 cycles
 SCF Done:  E(RB3LYP) =  -569.213888143     A.U. after   11 cycles
 SCF Done:  E(RB3LYP) =  -569.213898067     A.U. after   10 cycles
 SCF Done:  E(RB3LYP) =  -569.213906235     A.U. after   10 cycles
 SCF Done:  E(RB3LYP) =  -569.213907347     A.U. after    9 cycles
 SCF Done:  E(RB3LYP) =  -569.213907855     A.U. after    8 cycles
 Optimization completed.
    -- Stationary point found.

 1\1\GINC-NODE317\FOpt\RB3LYP\6-31G(d)\C9H12N4\VSC10255\13-Dec-2020\0\\
 # opt freq B3LYP/6-31G(d) empiricaldispersion=gd3bj scf=xqc\\CID_63179
 083_JID_3740_neutraal\\0,1\C,1.3293751855,0.1617202904,-0.0236484323\C
 ,0.8176238499,-0.8794265881,0.9805922149\C,-0.6801415839,-0.9626685948
 ,0.6586270734\N,-1.0067261506,0.4013959717,0.1983834284\C,0.1992943562
 ,1.1958998234,-0.038102743\C,-2.2271322655,1.0244334818,0.2675475109\N
 ,-2.4473992498,2.2938842183,0.1626886427\C,-3.4489118669,0.1742969495,
 0.4397199443\N,-3.44078708,-1.0928060752,0.0071804117\C,-4.5794474274,

 Normal termination of Gaussian 16 at Sun Dec 13 15:55:59 2020.

 --------------------------------------------------------------------
 #N Geom=AllCheck Guess=TCheck SCRF=Check GenChk RB3LYP/6-31G(d) Freq
 --------------------------------------------------------------------

 Structure from the checkpoint file:  "JID_3740.chk"
 ------------------------------
 CID_63179083_JID_3740_neutraal
 ------------------------------
 Charge =  0 Multiplicity = 1

 SCF Done:  E(RB3LYP) =  -569.213907855     A.U. after    1 cycles

  Exact polarizability: 152.287  -9.559 123.748  -4.166  -8.092  69.995
 Approx polarizability: 205.143 -11.826 214.827 -11.639 -22.117 111.538

                      1                      2                      3
                      A                      A                      A
 Frequencies --     42.3103                70.5194               103.0055
 Red. masses --      5.4412                 2.8107                 3.7359
 Frc consts  --      0.0057                 0.0082                 0.0234
 IR Inten    --      0.3424                 0.0770                 0.8800

                      4                      5                      6
                      A                      A                      A
 Frequencies --    117.8032               169.6626               216.2534
 Red. masses --      4.5160                 3.0257                 3.3569
 Frc consts  --      0.0369                 0.0513                 0.0925
 IR Inten    --      0.9700                 2.5796                 0.9465

                      7                      8                      9
                      A                      A                      A
 Frequencies --    267.0334               287.3310               325.2382
 Red. masses --      2.0785                 2.9339                 4.9982
 Frc consts  --      0.0873                 0.1427                 0.3115
 IR Inten    --      0.4339                 3.0530                 0.5550

                     10                     11                     12
                      A                      A                      A
 Frequencies --    390.0415               425.7733               461.3040
 Red. masses --      3.3274                 5.4229                 5.8006
 Frc consts  --      0.2983                 0.5792                 0.7273
 IR Inten    --     12.1677                15.7138                 4.1758

                     13                     14                     15
                      A                      A                      A
 Frequencies --    582.0116               602.8152               630.7379
 Red. masses --      2.0366                 4.3348                 8.7305
 Frc consts  --      0.4065                 0.9281                 2.0464
 IR Inten    --      2.1571                 3.5865                 1.7290

                     16                     17                     18
                      A                      A                      A
 Frequencies --    692.2076               704.0180               784.3307
 Red. masses --      3.7973                 4.0845                 2.6000
 Frc consts  --      1.0720                 1.1928                 0.9424
 IR Inten    --      7.7564                 9.0876                14.0241

                     19                     20                     21
                      A                      A                      A
 Frequencies --    786.0536               820.7254               874.0690
 Red. masses --      3.0256                 1.4390                 1.7471
 Frc consts  --      1.1015                 0.5711                 0.7864
 IR Inten    --      1.2699                52.6690                 8.2418

                     22                     23                     24
                      A                      A                      A
 Frequencies --    879.9591               892.7056               911.0792
 Red. masses --      1.6380                 1.9342                 2.8857
 Frc consts  --      0.7473                 0.9082                 1.4113
 IR Inten    --     22.0478                 1.1489                10.8992

                     25                     26                     27
                      A                      A                      A
 Frequencies --    934.1554               950.5196               973.5345
 Red. masses --      2.5217                 1.4634                 1.3387
 Frc consts  --      1.2965                 0.7790                 0.7475
 IR Inten    --      3.4490                 5.7216                 0.9618

                     28                     29                     30
                      A                      A                      A
 Frequencies --    985.7176               996.7260              1040.5644
 Red. masses --      1.5309                 1.5498                 4.6436
 Frc consts  --      0.8764                 0.9071                 2.9624
 IR Inten    --      1.8406                 0.3102                34.9030

                     31                     32                     33
                      A                      A                      A
 Frequencies --   1050.9656              1088.8878              1156.3998
 Red. masses --      1.9577                 2.6065                 1.5986
 Frc consts  --      1.2740                 1.8209                 1.2595
 IR Inten    --      1.4048                11.0622                 7.5069

                     34                     35                     36
                      A                      A                      A
 Frequencies --   1179.7267              1194.0669              1204.2650
 Red. masses --      2.0338                 1.5577                 1.6917
 Frc consts  --      1.6677                 1.3086                 1.4455
 IR Inten    --     18.7910                25.3570                21.8605

                     37                     38                     39
                      A                      A                      A
 Frequencies --   1210.3019              1228.5600              1257.4255
 Red. masses --      1.5653                 2.5474                 2.2061
 Frc consts  --      1.3509                 2.2654                 2.0551
 IR Inten    --     30.4468                29.1906                15.8868

                     40                     41                     42
                      A                      A                      A
 Frequencies --   1261.1523              1282.9272              1290.2267
 Red. masses --      3.7354                 1.4125                 1.4469
 Frc consts  --      3.5005                 1.3697                 1.4191
 IR Inten    --      4.3917                13.5211                 1.1239

                     43                     44                     45
                      A                      A                      A
 Frequencies --   1326.4375              1338.5864              1367.9685
 Red. masses --      1.4449                 1.3352                 1.2863
 Frc consts  --      1.4978                 1.4096                 1.4182
 IR Inten    --      3.4199                 0.3392                 1.2508

                     46                     47                     48
                      A                      A                      A
 Frequencies --   1382.1426              1399.9401              1422.4234
 Red. masses --      1.4269                 1.5394                 1.9711
 Frc consts  --      1.6060                 1.7775                 2.3497
 IR Inten    --      0.8996                25.6314               124.0887

                     49                     50                     51
                      A                      A                      A
 Frequencies --   1484.2099              1519.3042              1521.3145
 Red. masses --      3.0802                 1.1475                 1.9081
 Frc consts  --      3.9978                 1.5606                 2.6019
 IR Inten    --    168.4356                 6.3843                42.1218

                     52                     53                     54
                      A                      A                      A
 Frequencies --   1527.9008              1545.5096              1561.0382
 Red. masses --      1.2328                 1.0852                 1.1121
 Frc consts  --      1.6956                 1.5272                 1.5966
 IR Inten    --      2.3667                 2.6536                 4.9608

                     55                     56                     57
                      A                      A                      A
 Frequencies --   1591.6293              1627.0254              1663.2903
 Red. masses --      8.5644                 5.2625                 8.9076
 Frc consts  --     12.7830                 8.2079                14.5193
 IR Inten    --      6.1029                10.1154               194.6049

                     58                     59                     60
                      A                      A                      A
 Frequencies --   2987.8597              3059.1048              3062.5736
 Red. masses --      1.0716                 1.0740                 1.0750
 Frc consts  --      5.6365                 5.9219                 5.9406
 IR Inten    --     42.8541                27.1480                 2.3010

                     61                     62                     63
                      A                      A                      A
 Frequencies --   3073.7759              3077.5572              3116.5773
 Red. masses --      1.0717                 1.0644                 1.0976
 Frc consts  --      5.9658                 5.9395                 6.2815
 IR Inten    --     56.4275                23.0499                21.3879

                     64                     65                     66
                      A                      A                      A
 Frequencies --   3124.0128              3130.5594              3174.7113
 Red. masses --      1.1026                 1.1067                 1.0873
 Frc consts  --      6.3402                 6.3906                 6.4569
 IR Inten    --     28.6201                48.5871                 5.3161

                     67                     68                     69
                      A                      A                      A
 Frequencies --   3193.8448              3233.1799              3484.4410
 Red. masses --      1.0966                 1.0924                 1.0737
 Frc consts  --      6.5908                 6.7280                 7.6808
 IR Inten    --     51.0631                 0.9638                 8.5391

 - Thermochemistry -
 -------------------
 Temperature   298.150 Kelvin.  Pressure   1.00000 Atm.
 Atom     1 has atomic number  6 and mass  12.00000

 Molecular mass:   176.10620 amu.
 Principal axes and moments of inertia in atomic units:
                           1         2         3
     Eigenvalues --   941.606953659.918294369.75544
           X            1.00000  -0.00216   0.00215
           Y            0.00215   1.00000   0.00119
           Z           -0.00215  -0.00118   1.00000
 This molecule is an asymmetric top.
 Rotational symmetry number  1.
 Warning -- assumption of classical behavior for rotation
           may cause significant error
 Rotational temperatures (Kelvin)      0.09199     0.02367     0.01982
 Rotational constants (GHZ):           1.91666     0.49311     0.41301
 Zero-point vibrational energy     552196.4 (Joules/Mol)
                                  131.97811 (Kcal/Mol)
 Warning -- explicit consideration of  14 degrees of freedom as
           vibrations may cause significant error
 Vibrational temperatures:     60.88   101.46   148.20   169.49   244.11
          (Kelvin)            311.14   384.20   413.41   467.95   561.18
                              612.59   663.71   837.38   867.32   907.49
                              995.93  1012.92  1128.48  1130.96  1180.84
                             1257.59  1266.06  1284.40  1310.84  1344.04
                             1367.59  1400.70  1418.23  1434.07  1497.14
                             1512.11  1566.67  1663.80  1697.36  1718.00
                             1732.67  1741.35  1767.62  1809.15  1814.52
                             1845.85  1856.35  1908.45  1925.93  1968.20
                             1988.59  2014.20  2046.55  2135.45  2185.94
                             2188.83  2198.31  2223.64  2245.99  2290.00
                             2340.93  2393.10  4298.86  4401.37  4406.36
                             4422.48  4427.92  4484.06  4494.76  4504.18
                             4567.70  4595.23  4651.82  5013.33

 Zero-point correction=                           0.210321 (Hartree/Particle)
 Thermal correction to Energy=                    0.221217
 Thermal correction to Enthalpy=                  0.222162
 Thermal correction to Gibbs Free Energy=         0.172625
 Sum of electronic and zero-point Energies=           -569.003587
 Sum of electronic and thermal Energies=              -568.992691
 Sum of electronic and thermal Enthalpies=            -568.991746
 Sum of electronic and thermal Free Energies=         -569.041283

                     E (Thermal)             CV                S
                      KCal/Mol        Cal/Mol-Kelvin    Cal/Mol-Kelvin
 Total                  138.816             41.715            104.259
 Electronic               0.000              0.000              0.000
 Translational            0.889              2.981             41.405
 Rotational               0.889              2.981             31.088
 Vibrational            137.039             35.754             31.766
 Vibration     1          0.595              1.980              5.148
 Vibration     2          0.598              1.968              4.139
 Vibration     3          0.605              1.947              3.397
 Vibration     4          0.608              1.935              3.136
 Vibration     5          0.625              1.880              2.439
 Vibration     6          0.645              1.816              1.990
 Vibration     7          0.672              1.734              1.615
 Vibration     8          0.685              1.697              1.490
 Vibration     9          0.709              1.625              1.284
 Vibration    10          0.758              1.491              1.000
 Vibration    11          0.788              1.414              0.873
 Vibration    12          0.819              1.336              0.762
 Vibration    13          0.939              1.070              0.482
 Vibration    14          0.961              1.026              0.445

                           ! Non-Optimized Parameters !

 1\1\GINC-NODE317\Freq\RB3LYP\6-31G(d)\C9H12N4\VSC10255\13-Dec-2020\0\\
 #N Geom=AllCheck Guess=TCheck SCRF=Check GenChk RB3LYP/6-31G(d) Freq\\
 CID_63179083_JID_3740_neutraal\\0,1\C,1.3293751855,0.1617202904,-0.023
 6484323\C,0.8176238499,-0.8794265881,0.9805922149\C,-0.6801415839,-0.9
 626685948,0.6586270734\N,-1.0067261506,0.4013959717,0.1983834284\C,0.1
 992943562,1.1958998234,-0.038102743\C,-2.2271322655,1.0244334818,0.267
 5475109\N,-2.4473992498,2.2938842183,0.1626886427\C,-3.4489118669,0.17
 42969495,0.4397199443\N,-3.44078708,-1.0928060752,0.0071804117\C,-4.57

 Normal termination of Gaussian 16 at Sun Dec 13 16:01:34 2020.

 ----------------------------------------------------------------------
 # B3LYP/6-311++G(d,p) empiricaldispersion=gd3bj scf=xqc pop=npa geom=c
 heck
 ----------------------------------------------------------------------

 --------------------------------------
 CID_63179083_JID_3740_Energie_neutraal
 --------------------------------------
 Structure from the checkpoint file:  "JID_3740.chk"
 Charge =  0 Multiplicity = 1

 SCF Done:  E(RB3LYP) =  -569.365888857     A.U. after   16 cycles
 Normal termination of Gaussian 16 at Sun Dec 13 16:03:42 2020.

 ----------------------------------------------------------------------
 # B3LYP/6-311++G(d,p) empiricaldispersion=gd3bj scf=xqc pop=npa geom=c
 heck
 ----------------------------------------------------------------------

 ------------------------------------
 CID_63179083_JID_3740_Energie_kation
 ------------------------------------
 Structure from the checkpoint file:  "JID_3740.chk"
 Charge =  1 Multiplicity = 2

 SCF Done:  E(UB3LYP) =  -569.069197641     A.U. after   28 cycles
 Normal termination of Gaussian 16 at Sun Dec 13 16:08:40 2020.
 Gaussian 16:  ES64L-G16RevA.03 25-Dec-2016

 -----------------------------------
 CID_63179083_JID_3740_Energie_anion
 -----------------------------------
 Structure from the checkpoint file:  "JID_3740.chk"
 Charge = -1 Multiplicity = 2

                         Standard orientation:
 ---------------------------------------------------------------------
 Center     Atomic      Atomic             Coordinates (Angstroms)
 Number     Number       Type             X           Y           Z
 ---------------------------------------------------------------------
      1          6           0       -3.627181   -0.320132    0.228292
      2          6           0       -2.916683   -1.319255   -0.694378
      3          6           0       -1.445854   -1.188098   -0.278022
      4          7           0       -1.333608    0.223579    0.138776
      5          6           0       -2.647014    0.856629    0.264714
      6          6           0       -0.204260    1.002301    0.116052
      7          7           0       -0.160988    2.292849    0.176305
      8          6           0        1.127790    0.318662    0.057734
      9          7           0        1.258202   -0.921147    0.546176
     10          6           0        2.484126   -1.454352    0.513736
     11          6           0        3.575102   -0.762609   -0.007356
     12          7           0        3.454745    0.475539   -0.505253
     13          6           0        2.233831    1.011230   -0.465703
     14          1           0       -4.618301   -0.024683   -0.126572
     15          1           0       -3.738382   -0.745599    1.232325
     16          1           0       -3.041674   -1.016208   -1.740930
     17          1           0       -3.286164   -2.343741   -0.592795
     18          1           0       -1.199392   -1.854682    0.553969
     19          1           0       -0.755357   -1.413763   -1.094068
     20          1           0       -2.830055    1.548554   -0.573776
     21          1           0       -2.709190    1.437694    1.192822
     22          1           0       -1.095426    2.703441    0.208487
     23          1           0        2.595258   -2.459449    0.915355
     24          1           0        4.565968   -1.211278   -0.028542
     25          1           0        2.105110    2.017719   -0.848724
 ---------------------------------------------------------------------

 SCF Done:  E(UB3LYP) =  -569.369929125     A.U. after   33 cycles
 SCF Done:  E(UB3LYP) =  -569.369929125     a.u. after    1 cycles

 The electronic state is 2-A.
 Alpha  occ. eigenvalues --  -14.20698 -14.15355 -14.14815 -14.13208 -10.10099
 Alpha  occ. eigenvalues --  -10.09479 -10.08276 -10.07102 -10.06699 -10.06042
 Alpha  occ. eigenvalues --  -10.05644 -10.05296 -10.05066  -0.84630  -0.81899
 Alpha  occ. eigenvalues --   -0.75135  -0.74328  -0.66844  -0.63129  -0.61733
 Alpha  occ. eigenvalues --   -0.53777  -0.50602  -0.49650  -0.48371  -0.43464
 Alpha  occ. eigenvalues --   -0.40175  -0.39144  -0.36439  -0.35327  -0.33075
 Alpha  occ. eigenvalues --   -0.32158  -0.31128  -0.30391  -0.29383  -0.27587
 Alpha  occ. eigenvalues --   -0.26744  -0.25026  -0.24405  -0.23247  -0.23071
 Alpha  occ. eigenvalues --   -0.21205  -0.17819  -0.15163  -0.13674  -0.12037
 Alpha  occ. eigenvalues --   -0.09567  -0.09246   0.04638
 Alpha virt. eigenvalues --    0.06391   0.08474   0.08818   0.09281   0.09888
 Alpha virt. eigenvalues --    0.10832   0.11418   0.11616   0.12295   0.12663
 Alpha virt. eigenvalues --    0.12982   0.14134   0.15216   0.16264   0.16702

  Beta  occ. eigenvalues --  -14.20686 -14.14940 -14.14265 -14.13053 -10.10078
  Beta  occ. eigenvalues --  -10.09476 -10.08274 -10.07081 -10.06682 -10.06106
  Beta  occ. eigenvalues --  -10.05726 -10.05112 -10.04895  -0.84509  -0.81312
  Beta  occ. eigenvalues --   -0.74696  -0.73693  -0.66757  -0.62991  -0.61507
  Beta  occ. eigenvalues --   -0.53508  -0.50117  -0.49551  -0.48267  -0.43366
  Beta  occ. eigenvalues --   -0.39968  -0.39097  -0.36246  -0.35109  -0.32919
  Beta  occ. eigenvalues --   -0.32127  -0.31028  -0.30319  -0.29311  -0.26687
  Beta  occ. eigenvalues --   -0.26318  -0.24969  -0.24296  -0.23143  -0.22936
  Beta  occ. eigenvalues --   -0.20557  -0.15601  -0.14525  -0.13436  -0.11239
  Beta  occ. eigenvalues --   -0.08952  -0.08729
  Beta virt. eigenvalues --    0.06875   0.08647   0.08967   0.09239   0.10062
  Beta virt. eigenvalues --    0.10373   0.11254   0.11518   0.11658   0.12203
  Beta virt. eigenvalues --    0.12711   0.12996   0.14079   0.15178   0.16246

 Mulliken charges and spin densities:
               1          2
     1  C   -0.100645  -0.324922
     2  C   -0.141920  -0.436891
     3  C    0.000152  -0.153593
     4  N    0.070124   0.041749
     5  C   -0.041148  -0.165183
     6  C   -1.093482  -0.016014
     7  N   -0.370739   0.101617
     8  C    0.599147   0.118957
     9  N   -0.047990   0.246705
    10  C    0.159264   0.015982
    11  C   -0.311516   0.150760
    12  N   -0.103832   0.172138
    13  C   -0.297417   0.033750
    14  H   -0.343583   0.495424
    15  H    0.074633   0.058708
    16  H   -0.060041   0.196833
    17  H   -0.061377   0.208018
    18  H    0.170591   0.029890
    19  H    0.157463   0.028550
    20  H    0.078075   0.062484
    21  H    0.061715   0.094321
    22  H    0.187543   0.005719
    23  H    0.100246   0.025614
    24  H    0.125195  -0.009576
    25  H    0.189541   0.018960
 Sum of Mulliken charges =  -1.00000   1.00000

 Dipole moment (field-independent basis, Debye):
    X=             -3.1167    Y=             -2.1929    Z=              0.6843  Tot=              3.8719
 Quadrupole moment (field-independent basis, Debye-Ang):
   XX=           -133.5469   YY=            -98.6598   ZZ=            -92.2210
   XY=             -6.8294   XZ=             -1.1953   YZ=             -0.5823

 Summary of Natural Population Analysis:

                                       Natural Population
                Natural  -----------------------------------------------
    Atom  No    Charge         Core      Valence    Rydberg      Total
 -----------------------------------------------------------------------
      C    1   -0.19456      0.99964     2.18624    0.00868     3.19456
      C    2   -0.19697      0.99964     2.18837    0.00897     3.19697
      C    3   -0.07714      0.99963     2.06833    0.00918     3.07714
      N    4   -0.25777      0.99964     2.74849    0.00964     3.75777
      C    5   -0.08819      0.99963     2.07597    0.01259     3.08819
      C    6    0.22572      0.99959     1.75809    0.01660     2.77428
      N    7   -0.35363      0.99973     2.84643    0.00747     3.85363
      C    8    0.08309      0.99950     1.90177    0.01564     2.91691
      N    9   -0.15990      0.99968     2.64732    0.01290     3.65990
      C   10   -0.01623      0.99960     2.00246    0.01418     3.01623
      C   11    0.02347      0.99960     1.96281    0.01412     2.97653
      N   12   -0.17786      0.99971     2.66586    0.01229     3.67786
      C   13    0.00628      0.99956     1.97869    0.01547     2.99372
      H   14    0.10096      0.00000     0.39757    0.00147     0.39904
      H   15    0.09486      0.00000     0.40398    0.00116     0.40514
      H   16    0.09543      0.00000     0.40327    0.00130     0.40457
      H   17    0.09848      0.00000     0.40064    0.00088     0.40152
      H   18    0.09820      0.00000     0.40010    0.00171     0.40180
      H   19    0.10357      0.00000     0.39525    0.00119     0.39643
      H   20    0.08749      0.00000     0.41091    0.00160     0.41251
      H   21    0.09498      0.00000     0.40376    0.00126     0.40502
      H   22    0.15292      0.00000     0.34478    0.00229     0.34708
      H   23    0.08100      0.00000     0.41773    0.00126     0.41900
      H   24    0.07868      0.00000     0.42005    0.00127     0.42132
      H   25    0.09712      0.00000     0.40082    0.00206     0.40288
 =======================================================================
   * Total *    0.00000     12.99515    33.82968    0.17518    47.00000

 Normal termination of Gaussian 16 at Sun Dec 13 16:14:31 2020.
