 Gaussian 16, Revision A.03,

 -----------------------------------------------------------
 # opt freq B3LYP/6-31G(d) empiricaldispersion=gd3bj scf=xqc
 -----------------------------------------------------------

 -------------------------------
 CID_107345916_JID_7310_neutraal
 -------------------------------
 Symbolic Z-matrix:
 Charge =  0 Multiplicity = 1

 SCF Done:  E(RB3LYP) =  -825.527699444     A.U. after   15 cycles
 SCF Done:  E(RB3LYP) =  -825.537065170     A.U. after   13 cycles
 SCF Done:  E(RB3LYP) =  -825.538202233     A.U. after   12 cycles
 SCF Done:  E(RB3LYP) =  -825.538280858     A.U. after   10 cycles
 SCF Done:  E(RB3LYP) =  -825.538289513     A.U. after    9 cycles
 SCF Done:  E(RB3LYP) =  -825.538288483     A.U. after    9 cycles
 SCF Done:  E(RB3LYP) =  -825.538288778     A.U. after   10 cycles
 SCF Done:  E(RB3LYP) =  -825.538292019     A.U. after    9 cycles
 SCF Done:  E(RB3LYP) =  -825.538296627     A.U. after    9 cycles
 SCF Done:  E(RB3LYP) =  -825.479286871     A.U. after   15 cycles
 SCF Done:  E(RB3LYP) =  -825.538930388     A.U. after   12 cycles
 SCF Done:  E(RB3LYP) =  -825.539124384     A.U. after   11 cycles
 SCF Done:  E(RB3LYP) =  -825.539191933     A.U. after   11 cycles
 SCF Done:  E(RB3LYP) =  -825.539241473     A.U. after   10 cycles
 SCF Done:  E(RB3LYP) =  -825.539253880     A.U. after   10 cycles
 SCF Done:  E(RB3LYP) =  -825.539254756     A.U. after    8 cycles
 Optimization completed.
    -- Stationary point found.
 Normal termination of Gaussian 16 at Fri Dec 11 12:07:13 2020.

 --------------------------------------------------------------------
 #N Geom=AllCheck Guess=TCheck SCRF=Check GenChk RB3LYP/6-31G(d) Freq
 --------------------------------------------------------------------

 Structure from the checkpoint file:  "JID_7310.chk"
 -------------------------------
 CID_107345916_JID_7310_neutraal
 -------------------------------
 Charge =  0 Multiplicity = 1

 SCF Done:  E(RB3LYP) =  -825.539254756     A.U. after    1 cycles

  Exact polarizability: 295.754  -3.871 129.307  -0.129  -0.824  50.519
 Approx polarizability: 450.935  -8.788 232.856  -1.368  -1.239  80.302

                      1                      2                      3
                      A                      A                      A
 Frequencies --     41.6224                53.1278                79.4305
 Red. masses --      9.5370                 6.0543                 9.1283
 Frc consts  --      0.0097                 0.0101                 0.0339
 IR Inten    --      1.1141                 0.0218                 1.4333

                      4                      5                      6
                      A                      A                      A
 Frequencies --     83.0420               117.9726               153.5993
 Red. masses --     10.1046                 8.2982                 9.5636
 Frc consts  --      0.0411                 0.0680                 0.1329
 IR Inten    --      0.7147                 8.3996                 2.4170

                      7                      8                      9
                      A                      A                      A
 Frequencies --    197.9246               218.1907               254.9158
 Red. masses --      5.5829                 5.8132                 6.7032
 Frc consts  --      0.1289                 0.1631                 0.2566
 IR Inten    --      1.1945                 9.1731                 1.0649

                     10                     11                     12
                      A                      A                      A
 Frequencies --    279.7977               317.6181               340.9784
 Red. masses --     10.3803                 4.9637                 2.5343
 Frc consts  --      0.4788                 0.2950                 0.1736
 IR Inten    --      6.4474                 3.1750                38.0917

                     13                     14                     15
                      A                      A                      A
 Frequencies --    387.6353               426.1774               428.2354
 Red. masses --      1.4368                 5.0670                 7.8208
 Frc consts  --      0.1272                 0.5422                 0.8450
 IR Inten    --     57.3342                16.7055                 2.5202

                     16                     17                     18
                      A                      A                      A
 Frequencies --    466.8447               493.1053               551.7053
 Red. masses --      6.7995                 7.8151                 6.5816
 Frc consts  --      0.8731                 1.1196                 1.1803
 IR Inten    --     14.4721                 2.4971                11.9045

                     19                     20                     21
                      A                      A                      A
 Frequencies --    580.6032               586.1495               591.3819
 Red. masses --      4.5437                 3.6263                 1.6980
 Frc consts  --      0.9024                 0.7341                 0.3499
 IR Inten    --     72.9448                11.4894                12.5448

                     22                     23                     24
                      A                      A                      A
 Frequencies --    607.2952               614.8954               647.1863
 Red. masses --      2.9115                 2.1179                 3.0527
 Frc consts  --      0.6326                 0.4718                 0.7533
 IR Inten    --     81.2601               149.4106                42.7860

                     25                     26                     27
                      A                      A                      A
 Frequencies --    667.2425               689.8314               700.3707
 Red. masses --     10.0325                 2.8272                 4.2669
 Frc consts  --      2.6317                 0.7927                 1.2332
 IR Inten    --      0.3015                73.5079                86.3265

                     28                     29                     30
                      A                      A                      A
 Frequencies --    750.8741               788.4681               790.4708
 Red. masses --      1.6716                 6.6073                 6.5581
 Frc consts  --      0.5553                 2.4202                 2.4144
 IR Inten    --     11.2005                 7.5720                11.1837

                     31                     32                     33
                      A                      A                      A
 Frequencies --    795.2517               853.6040               938.3297
 Red. masses --      6.8087                 7.2833                 1.5680
 Frc consts  --      2.5370                 3.1267                 0.8134
 IR Inten    --     35.9123                 1.8070                13.4317

                     34                     35                     36
                      A                      A                      A
 Frequencies --    963.4136               979.8959              1036.6512
 Red. masses --      1.3045                 9.0252                 3.5303
 Frc consts  --      0.7134                 5.1058                 2.2353
 IR Inten    --      0.3195                98.6663                51.2884

                     37                     38                     39
                      A                      A                      A
 Frequencies --   1086.4938              1134.7045              1147.3221
 Red. masses --      1.6847                 2.7707                 3.0809
 Frc consts  --      1.1717                 2.1018                 2.3894
 IR Inten    --     28.6995                31.4365               315.1855

                     40                     41                     42
                      A                      A                      A
 Frequencies --   1246.2430              1258.5522              1275.8130
 Red. masses --      3.3145                 2.0789                 5.7950
 Frc consts  --      3.0331                 1.9401                 5.5575
 IR Inten    --    215.3895                64.4877                39.4194

                     43                     44                     45
                      A                      A                      A
 Frequencies --   1282.4643              1298.7824              1334.0551
 Red. masses --      2.0978                 3.8889                 1.8431
 Frc consts  --      2.0328                 3.8650                 1.9327
 IR Inten    --     12.7142                19.7621                 2.0454

                     46                     47                     48
                      A                      A                      A
 Frequencies --   1389.4254              1407.1098              1427.3684
 Red. masses --      4.3160                 3.1239                 9.1644
 Frc consts  --      4.9091                 3.6442                11.0009
 IR Inten    --      2.8388               471.1239               185.6903

                     49                     50                     51
                      A                      A                      A
 Frequencies --   1474.6799              1522.6465              1558.3144
 Red. masses --      3.4218                 3.9826                 6.4685
 Frc consts  --      4.3844                 5.4402                 9.2548
 IR Inten    --      4.1681               271.1078               215.3166

                     52                     53                     54
                      A                      A                      A
 Frequencies --   1589.1642              1621.6068              1631.3679
 Red. masses --      9.1141                 5.5334                 2.3005
 Frc consts  --     13.5613                 8.5730                 3.6072
 IR Inten    --     75.3730               168.3848                 6.6249

                     55                     56                     57
                      A                      A                      A
 Frequencies --   1685.0421              1794.4608              2358.0109
 Red. masses --      1.9844                 7.4858                12.6818
 Frc consts  --      3.3198                14.2022                41.5455
 IR Inten    --    230.2442               373.9182                20.1200

                     58                     59                     60
                      A                      A                      A
 Frequencies --   3206.9789              3241.5178              3323.7996
 Red. masses --      1.0932                 1.0929                 1.0974
 Frc consts  --      6.6241                 6.7658                 7.1433
 IR Inten    --     11.6593                 1.3865                 8.1438

                     61                     62                     63
                      A                      A                      A
 Frequencies --   3548.4224              3666.5059              3691.4798
 Red. masses --      1.0483                 1.0993                 1.0641
 Frc consts  --      7.7770                 8.7073                 8.5431
 IR Inten    --     72.2271                45.0792                94.5125

 - Thermochemistry -
 -------------------
 Temperature   298.150 Kelvin.  Pressure   1.00000 Atm.
 Atom     1 has atomic number  6 and mass  12.00000

 Molecular mass:   230.05522 amu.
 Principal axes and moments of inertia in atomic units:
                           1         2         3
     Eigenvalues --  1193.014908731.853049921.93479
           X            1.00000  -0.00057   0.00067
           Y            0.00057   0.99999  -0.00357
           Z           -0.00067   0.00357   0.99999
 This molecule is an asymmetric top.
 Rotational symmetry number  1.
 Warning -- assumption of classical behavior for rotation
           may cause significant error
 Rotational temperatures (Kelvin)      0.07260     0.00992     0.00873
 Rotational constants (GHZ):           1.51276     0.20668     0.18189
 Zero-point vibrational energy     416756.0 (Joules/Mol)
                                   99.60709 (Kcal/Mol)
 Warning -- explicit consideration of  23 degrees of freedom as
           vibrations may cause significant error
 Vibrational temperatures:     59.89    76.44   114.28   119.48   169.74
          (Kelvin)            221.00   284.77   313.93   366.77   402.57
                              456.98   490.59   557.72   613.17   616.14
                              671.69   709.47   793.78   835.36   843.34
                              850.87   873.76   884.70   931.16   960.01
                              992.51  1007.68  1080.34  1134.43  1137.31
                             1144.19  1228.15  1350.05  1386.14  1409.85
                             1491.51  1563.22  1632.59  1650.74  1793.07
                             1810.78  1835.61  1845.18  1868.66  1919.41
                             1999.07  2024.52  2053.66  2121.74  2190.75
                             2242.07  2286.45  2333.13  2347.17  2424.40
                             2581.83  3392.65  4614.13  4663.82  4782.21
                             5105.39  5275.28  5311.22

 Zero-point correction=                           0.158734 (Hartree/Particle)
 Thermal correction to Energy=                    0.172531
 Thermal correction to Enthalpy=                  0.173475
 Thermal correction to Gibbs Free Energy=         0.117064
 Sum of electronic and zero-point Energies=           -825.380521
 Sum of electronic and thermal Energies=              -825.366724
 Sum of electronic and thermal Enthalpies=            -825.365779
 Sum of electronic and thermal Free Energies=         -825.422191

                     E (Thermal)             CV                S
                      KCal/Mol        Cal/Mol-Kelvin    Cal/Mol-Kelvin
 Total                  108.265             52.152            118.728
 Electronic               0.000              0.000              0.000
 Translational            0.889              2.981             42.201
 Rotational               0.889              2.981             33.002
 Vibrational            106.488             46.191             43.525
 Vibration     1          0.594              1.981              5.180
 Vibration     2          0.596              1.976              4.697
 Vibration     3          0.600              1.963              3.905
 Vibration     4          0.600              1.961              3.818
 Vibration     5          0.608              1.934              3.133
 Vibration     6          0.619              1.899              2.627
 Vibration     7          0.637              1.843              2.152
 Vibration     8          0.646              1.813              1.974
 Vibration     9          0.665              1.754              1.696
 Vibration    10          0.680              1.711              1.535
 Vibration    11          0.704              1.640              1.322
 Vibration    12          0.720              1.594              1.208
 Vibration    13          0.756              1.497              1.009
 Vibration    14          0.788              1.413              0.871
 Vibration    15          0.790              1.409              0.864
 Vibration    16          0.824              1.324              0.746
 Vibration    17          0.849              1.265              0.676
 Vibration    18          0.907              1.136              0.541
 Vibration    19          0.937              1.073              0.484
 Vibration    20          0.943              1.061              0.474
 Vibration    21          0.949              1.050              0.465
 Vibration    22          0.966              1.016              0.437
 Vibration    23          0.974              1.000              0.425

                           ! Non-Optimized Parameters !
 Normal termination of Gaussian 16 at Fri Dec 11 12:14:39 2020.

 ----------------------------------------------------------------------
 # B3LYP/6-311++G(d,p) empiricaldispersion=gd3bj scf=xqc pop=npa geom=c
 heck
 ----------------------------------------------------------------------

 ---------------------------------------
 CID_107345916_JID_7310_Energie_neutraal
 ---------------------------------------
 Structure from the checkpoint file:  "JID_7310.chk"
 Charge =  0 Multiplicity = 1

 SCF Done:  E(RB3LYP) =  -825.773788185     A.U. after   16 cycles
 Normal termination of Gaussian 16 at Fri Dec 11 12:17:54 2020.

 ----------------------------------------------------------------------
 # B3LYP/6-311++G(d,p) empiricaldispersion=gd3bj scf=xqc pop=npa geom=c
 heck
 ----------------------------------------------------------------------

 -------------------------------------
 CID_107345916_JID_7310_Energie_kation
 -------------------------------------
 Structure from the checkpoint file:  "JID_7310.chk"
 Charge =  1 Multiplicity = 2

 SCF Done:  E(UB3LYP) =  -825.470882875     A.U. after   25 cycles
 Normal termination of Gaussian 16 at Fri Dec 11 12:25:17 2020.
 Gaussian 16:  ES64L-G16RevA.03 25-Dec-2016

 ----------------------------------------------------------------------
 # B3LYP/6-311++G(d,p) empiricaldispersion=gd3bj scf=xqc pop=npa geom=c
 heck
 ----------------------------------------------------------------------

 ------------------------------------
 CID_107345916_JID_7310_Energie_anion
 ------------------------------------
 Structure from the checkpoint file:  "JID_7310.chk"
 Charge = -1 Multiplicity = 2

                         Standard orientation:
 ---------------------------------------------------------------------
 Center     Atomic      Atomic             Coordinates (Angstroms)
 Number     Number       Type             X           Y           Z
 ---------------------------------------------------------------------
      1          6           0        3.107940    1.111897   -0.012187
      2          6           0        3.674203   -0.168080   -0.006510
      3          7           0        2.911040   -1.281031    0.007578
      4          6           0        1.598633   -1.108208    0.015965
      5          6           0        1.039312    0.187852    0.009556
      6          7           0        1.786659    1.290649   -0.004300
      7          7           0       -0.344240    0.372106    0.017261
      8          6           0       -1.017597    1.580235    0.015125
      9          6           0       -2.362287    1.265570    0.021529
     10          6           0       -2.389729   -0.172137    0.023408
     11          7           0       -1.162606   -0.695322    0.023732
     12          6           0       -3.610592   -0.979330   -0.015816
     13          8           0       -4.727921   -0.488125   -0.091608
     14          8           0       -3.398220   -2.307579    0.029179
     15          7           0       -3.462030    2.089278    0.084816
     16          6           0        5.101255   -0.325422   -0.016067
     17          7           0        6.260511   -0.408896   -0.024595
     18          1           0        3.731994    2.001228   -0.023294
     19          1           0        0.961426   -1.984974    0.027835
     20          1           0       -0.481399    2.513944    0.016922
     21          1           0       -4.281521   -2.719802   -0.012766
     22          1           0       -4.332703    1.620425   -0.138774
     23          1           0       -3.360815    3.013074   -0.311960
 ---------------------------------------------------------------------

 SCF Done:  E(UB3LYP) =  -825.828440557     A.U. after   23 cycles

 The electronic state is 2-A.
 Alpha  occ. eigenvalues --  -19.06556 -19.00076 -14.28791 -14.21984 -14.21069
 Alpha  occ. eigenvalues --  -14.19523 -14.19495 -14.18309 -10.19118 -10.11654
 Alpha  occ. eigenvalues --  -10.10700 -10.10459 -10.09870 -10.09305 -10.08334
 Alpha  occ. eigenvalues --  -10.08313 -10.08205  -1.00524  -0.94898  -0.91196
 Alpha  occ. eigenvalues --   -0.86481  -0.81629  -0.79740  -0.77879  -0.73091
 Alpha  occ. eigenvalues --   -0.67434  -0.64987  -0.59345  -0.55050  -0.53634
 Alpha  occ. eigenvalues --   -0.49370  -0.47596  -0.43882  -0.43766  -0.41216
 Alpha  occ. eigenvalues --   -0.40604  -0.39003  -0.37557  -0.36636  -0.35927
 Alpha  occ. eigenvalues --   -0.34188  -0.33695  -0.31324  -0.30864  -0.30128
 Alpha  occ. eigenvalues --   -0.28810  -0.25580  -0.24706  -0.23391  -0.22255
 Alpha  occ. eigenvalues --   -0.21971  -0.21199  -0.19320  -0.18957  -0.17917
 Alpha  occ. eigenvalues --   -0.17552  -0.13756  -0.13553  -0.10161   0.00146
 Alpha virt. eigenvalues --    0.06373   0.07159   0.07808   0.08422   0.09332
 Alpha virt. eigenvalues --    0.11169   0.11737   0.11904   0.12786   0.13857
 Alpha virt. eigenvalues --    0.14489   0.14673   0.14786   0.15509   0.15587

  Beta  occ. eigenvalues --  -19.06530 -18.99915 -14.28917 -14.22002 -14.20633
  Beta  occ. eigenvalues --  -14.19233 -14.19182 -14.18091 -10.19008 -10.11256
  Beta  occ. eigenvalues --  -10.10750 -10.10527 -10.09598 -10.09418 -10.08373
  Beta  occ. eigenvalues --  -10.08236 -10.08132  -1.00382  -0.94639  -0.90968
  Beta  occ. eigenvalues --   -0.85970  -0.81636  -0.79148  -0.77509  -0.72685
  Beta  occ. eigenvalues --   -0.67129  -0.64664  -0.58811  -0.54858  -0.53427
  Beta  occ. eigenvalues --   -0.49145  -0.47540  -0.43748  -0.43508  -0.41043
  Beta  occ. eigenvalues --   -0.40475  -0.38773  -0.37435  -0.36109  -0.35681
  Beta  occ. eigenvalues --   -0.33635  -0.33466  -0.31210  -0.30018  -0.29828
  Beta  occ. eigenvalues --   -0.28713  -0.24988  -0.24358  -0.22599  -0.21841
  Beta  occ. eigenvalues --   -0.21707  -0.19750  -0.18900  -0.18581  -0.17611
  Beta  occ. eigenvalues --   -0.16265  -0.13386  -0.12500  -0.09504
  Beta virt. eigenvalues --    0.05771   0.07153   0.07349   0.07809   0.09324
  Beta virt. eigenvalues --    0.09790   0.11163   0.11741   0.12238   0.12885
  Beta virt. eigenvalues --    0.13873   0.14570   0.14748   0.15018   0.15543

 Mulliken charges and spin densities:
               1          2
     1  C   -0.017243  -0.027046
     2  C    1.119661   0.202212
     3  N   -0.085657   0.158710
     4  C    0.051140  -0.058239
     5  C   -0.323136   0.210324
     6  N   -0.108772   0.130796
     7  N   -0.186545  -0.080414
     8  C   -0.074089   0.045141
     9  C   -0.167346  -0.000729
    10  C   -0.105868   0.038206
    11  N    0.129468   0.222814
    12  C    0.066173   0.059033
    13  O   -0.418813   0.052741
    14  O   -0.156197   0.005158
    15  N   -0.385675  -0.005546
    16  C   -1.471370  -0.068295
    17  N   -0.309759   0.114045
    18  H    0.189695   0.002607
    19  H    0.239133   0.002857
    20  H    0.222973  -0.005125
    21  H    0.292136  -0.000527
    22  H    0.281025  -0.000324
    23  H    0.219068   0.001602
 Sum of Mulliken charges =  -1.00000   1.00000

 Dipole moment (field-independent basis, Debye):
    X=             -8.0713    Y=              2.8156    Z=             -0.7661  Tot=              8.5825
 Quadrupole moment (field-independent basis, Debye-Ang):
   XX=           -200.3437   YY=           -100.7181   ZZ=           -102.4021
   XY=             10.0093   XZ=              3.1919   YZ=             -2.4184

 Summary of Natural Population Analysis:

                                       Natural Population
                Natural  -----------------------------------------------
    Atom  No    Charge         Core      Valence    Rydberg      Total
 -----------------------------------------------------------------------
      C    1    0.02165      0.99958     1.96629    0.01249     2.97835
      C    2    0.03363      0.99944     1.95223    0.01471     2.96637
      N    3   -0.15287      0.99969     2.64271    0.01046     3.65287
      C    4   -0.01257      0.99958     2.00056    0.01243     3.01257
      C    5    0.24242      0.99954     1.74507    0.01297     2.75758
      N    6   -0.20289      0.99968     2.69256    0.01065     3.70289
      N    7   -0.11332      0.99963     2.59968    0.01401     3.61332
      C    8   -0.03650      0.99953     2.02635    0.01062     3.03650
      C    9    0.04726      0.99949     1.94241    0.01084     2.95274
      C   10    0.00478      0.99950     1.98183    0.01390     2.99522
      N   11   -0.06099      0.99970     2.55060    0.01068     3.56099
      C   12    0.40087      0.99965     1.57568    0.02379     2.59913
      O   13   -0.32548      0.99987     3.31763    0.00798     4.32548
      O   14   -0.33452      0.99987     3.32836    0.00629     4.33452
      N   15   -0.40859      0.99970     2.89946    0.00942     3.90859
      C   16    0.14014      0.99964     1.84209    0.01813     2.85986
      N   17   -0.16512      0.99979     2.65382    0.01151     3.66512
      H   18    0.08987      0.00000     0.40890    0.00124     0.41013
      H   19    0.10486      0.00000     0.39394    0.00121     0.39514
      H   20    0.11154      0.00000     0.38734    0.00112     0.38846
      H   21    0.23220      0.00000     0.26486    0.00294     0.26780
      H   22    0.20299      0.00000     0.29546    0.00155     0.29701
      H   23    0.18064      0.00000     0.31793    0.00143     0.31936
 =======================================================================
   * Total *   -0.00000     16.99389    41.78574    0.22036    59.00000

 Normal termination of Gaussian 16 at Fri Dec 11 12:32:03 2020.
