 Gaussian 16, Revision A.03,

 -----------------------------------------------------------
 # opt freq B3LYP/6-31G(d) empiricaldispersion=gd3bj scf=xqc
 -----------------------------------------------------------

 -------------------------------
 CID_136812406_JID_5293_neutraal
 -------------------------------
 Symbolic Z-matrix:
 Charge =  0 Multiplicity = 1

 SCF Done:  E(RB3LYP) =  -702.388189563     A.U. after   16 cycles
 SCF Done:  E(RB3LYP) =  -702.396590876     A.U. after   13 cycles
 SCF Done:  E(RB3LYP) =  -702.397595083     A.U. after   12 cycles
 SCF Done:  E(RB3LYP) =  -702.397680698     A.U. after   13 cycles
 SCF Done:  E(RB3LYP) =  -702.398143436     A.U. after   12 cycles
 SCF Done:  E(RB3LYP) =  -702.398386239     A.U. after   11 cycles
 SCF Done:  E(RB3LYP) =  -702.398468942     A.U. after   11 cycles
 SCF Done:  E(RB3LYP) =  -702.398497021     A.U. after   10 cycles
 SCF Done:  E(RB3LYP) =  -702.398524466     A.U. after   10 cycles
 SCF Done:  E(RB3LYP) =  -702.398545259     A.U. after   10 cycles
 SCF Done:  E(RB3LYP) =  -702.398555307     A.U. after    8 cycles
 SCF Done:  E(RB3LYP) =  -702.398555515     A.U. after    7 cycles
 SCF Done:  E(RB3LYP) =  -702.398555650     A.U. after    7 cycles
 SCF Done:  E(RB3LYP) =  -702.398555730     A.U. after    7 cycles
 SCF Done:  E(RB3LYP) =  -702.398555793     A.U. after    7 cycles
 Optimization completed.
    -- Stationary point found.
 Normal termination of Gaussian 16 at Thu Dec 10 15:26:17 2020.

 --------------------------------------------------------------------
 #N Geom=AllCheck Guess=TCheck SCRF=Check GenChk RB3LYP/6-31G(d) Freq
 --------------------------------------------------------------------

 Structure from the checkpoint file:  "JID_5293.chk"
 -------------------------------
 CID_136812406_JID_5293_neutraal
 -------------------------------
 Charge =  0 Multiplicity = 1

 SCF Done:  E(RB3LYP) =  -702.398555793     A.U. after    1 cycles

  Exact polarizability: 195.136  -9.642 124.896   4.930  -4.279  67.910
 Approx polarizability: 264.158 -29.663 235.558  15.142 -15.743 111.317

                      1                      2                      3
                      A                      A                      A
 Frequencies --     50.2830                63.9264                87.9801
 Red. masses --      4.8652                 4.0772                 3.2579
 Frc consts  --      0.0072                 0.0098                 0.0149
 IR Inten    --      9.8712                 1.1135                 5.9003

                      4                      5                      6
                      A                      A                      A
 Frequencies --    111.9364               117.5564               168.7751
 Red. masses --      1.1305                 1.2939                 3.0164
 Frc consts  --      0.0083                 0.0105                 0.0506
 IR Inten    --      0.5776                 2.4446                 5.6296

                      7                      8                      9
                      A                      A                      A
 Frequencies --    185.5312               197.9126               225.0864
 Red. masses --      3.4702                 2.1248                 1.6345
 Frc consts  --      0.0704                 0.0490                 0.0488
 IR Inten    --      1.8295                11.0981                15.1027

                     10                     11                     12
                      A                      A                      A
 Frequencies --    258.5818               275.5242               301.7169
 Red. masses --      3.8319                 4.0450                 3.3655
 Frc consts  --      0.1510                 0.1809                 0.1805
 IR Inten    --      1.1852                 1.2948                 8.6982

                     13                     14                     15
                      A                      A                      A
 Frequencies --    320.3112               325.1943               403.9973
 Red. masses --      3.9864                 4.2161                 5.7059
 Frc consts  --      0.2410                 0.2627                 0.5487
 IR Inten    --      1.1079                 8.3549                 7.5340

                     16                     17                     18
                      A                      A                      A
 Frequencies --    438.0854               500.6323               515.0107
 Red. masses --      3.0795                 2.4398                 2.2092
 Frc consts  --      0.3482                 0.3603                 0.3452
 IR Inten    --     19.1023                19.9279                29.2986

                     19                     20                     21
                      A                      A                      A
 Frequencies --    540.4683               578.9097               592.5826
 Red. masses --      5.0221                 5.7485                 4.2721
 Frc consts  --      0.8643                 1.1351                 0.8839
 IR Inten    --      6.2999                22.1408                30.8158

                     22                     23                     24
                      A                      A                      A
 Frequencies --    604.7859               632.7145               676.9589
 Red. masses --      3.2358                 2.1320                 5.1587
 Frc consts  --      0.6973                 0.5029                 1.3929
 IR Inten    --     20.7492               148.0236                14.8235

                     25                     26                     27
                      A                      A                      A
 Frequencies --    696.8284               729.7769               759.1427
 Red. masses --      3.2175                 5.0905                 6.0965
 Frc consts  --      0.9205                 1.5973                 2.0700
 IR Inten    --    115.1056                55.4619                 0.2104

                     28                     29                     30
                      A                      A                      A
 Frequencies --    780.4259               781.6033               881.5546
 Red. masses --      4.5403                 3.6292                 1.5062
 Frc consts  --      1.6293                 1.3063                 0.6897
 IR Inten    --     17.5828                 3.7966                22.7671

                     31                     32                     33
                      A                      A                      A
 Frequencies --    908.2468               915.5374               966.5933
 Red. masses --      2.0396                 2.8432                 3.1104
 Frc consts  --      0.9913                 1.4041                 1.7122
 IR Inten    --     37.8561                30.8278                 4.3960

                     34                     35                     36
                      A                      A                      A
 Frequencies --    975.5436              1024.9589              1054.0254
 Red. masses --      2.5078                 2.1983                 1.9855
 Frc consts  --      1.4061                 1.3607                 1.2996
 IR Inten    --      9.3417                39.3066                33.6726

                     37                     38                     39
                      A                      A                      A
 Frequencies --   1075.8643              1078.6296              1082.8439
 Red. masses --      1.9250                 1.4940                 1.4792
 Frc consts  --      1.3128                 1.0241                 1.0219
 IR Inten    --     11.4547                 3.1947                 0.4742

                     40                     41                     42
                      A                      A                      A
 Frequencies --   1162.6080              1205.8966              1236.0393
 Red. masses --      3.7410                 2.3119                 2.4842
 Frc consts  --      2.9793                 1.9808                 2.2361
 IR Inten    --      4.1598                 2.1675                13.2679

                     43                     44                     45
                      A                      A                      A
 Frequencies --   1262.1341              1296.5187              1371.1942
 Red. masses --      1.5694                 3.3775                 4.3034
 Frc consts  --      1.4730                 3.3450                 4.7672
 IR Inten    --     27.6885                10.5083                 2.4219

                     46                     47                     48
                      A                      A                      A
 Frequencies --   1391.2934              1399.3371              1445.7236
 Red. masses --      1.9417                 2.2529                 1.3068
 Frc consts  --      2.2144                 2.5991                 1.6093
 IR Inten    --      4.6233                 3.1163                 1.8676

                     49                     50                     51
                      A                      A                      A
 Frequencies --   1450.9642              1490.5390              1505.5365
 Red. masses --      1.3015                 2.2386                 1.4693
 Frc consts  --      1.6144                 2.9303                 1.9622
 IR Inten    --     14.1058                16.0325                69.2345

                     52                     53                     54
                      A                      A                      A
 Frequencies --   1510.6479              1514.6287              1524.9675
 Red. masses --      1.0429                 1.3363                 3.0591
 Frc consts  --      1.4022                 1.8062                 4.1915
 IR Inten    --      9.5480                26.2068               157.0696

                     55                     56                     57
                      A                      A                      A
 Frequencies --   1530.7392              1565.0404              1652.8898
 Red. masses --      1.2098                 3.0795                 2.9912
 Frc consts  --      1.6702                 4.4440                 4.8149
 IR Inten    --      4.0739               110.8800                 4.2881

                     58                     59                     60
                      A                      A                      A
 Frequencies --   1668.4050              1691.1414              1706.7690
 Red. masses --      1.4501                 7.2277                 4.3978
 Frc consts  --      2.3782                12.1790                 7.5480
 IR Inten    --     17.6545                30.7363               367.9036

                     61                     62                     63
                      A                      A                      A
 Frequencies --   1732.3486              3043.4045              3048.6785
 Red. masses --      8.4628                 1.0404                 1.0396
 Frc consts  --     14.9636                 5.6779                 5.6929
 IR Inten    --    332.5924                26.7755                38.5550

                     64                     65                     66
                      A                      A                      A
 Frequencies --   3093.9468              3108.3220              3137.3216
 Red. masses --      1.1013                 1.1000                 1.0990
 Frc consts  --      6.2113                 6.2618                 6.3733
 IR Inten    --     15.8181                27.3118                 6.9977

                     67                     68                     69
                      A                      A                      A
 Frequencies --   3160.5270              3226.3762              3241.3341
 Red. masses --      1.0977                 1.0918                 1.0934
 Frc consts  --      6.4603                 6.6961                 6.7681
 IR Inten    --      6.4562                 4.6161                 0.8819

                     70                     71                     72
                      A                      A                      A
 Frequencies --   3549.2359              3633.9725              3649.7572
 Red. masses --      1.0478                 1.0782                 1.0980
 Frc consts  --      7.7769                 8.3894                 8.6176
 IR Inten    --     31.2064                75.3988                23.2492

 - Thermochemistry -
 -------------------
 Temperature   298.150 Kelvin.  Pressure   1.00000 Atm.
 Atom     1 has atomic number  6 and mass  12.00000

 Molecular mass:   205.08513 amu.
 Principal axes and moments of inertia in atomic units:
                           1         2         3
     Eigenvalues --  1157.339025330.383316160.51980
           X            0.99987  -0.01611  -0.00052
           Y            0.01612   0.99981   0.01087
           Z            0.00034  -0.01088   0.99994
 This molecule is an asymmetric top.
 Rotational symmetry number  1.
 Warning -- assumption of classical behavior for rotation
           may cause significant error
 Rotational temperatures (Kelvin)      0.07484     0.01625     0.01406
 Rotational constants (GHZ):           1.55939     0.33858     0.29295
 Zero-point vibrational energy     538883.4 (Joules/Mol)
                                  128.79623 (Kcal/Mol)
 Warning -- explicit consideration of  22 degrees of freedom as
           vibrations may cause significant error
 Vibrational temperatures:     72.35    91.98   126.58   161.05   169.14
          (Kelvin)            242.83   266.94   284.75   323.85   372.04
                              396.42   434.10   460.86   467.88   581.26
                              630.31   720.30   740.99   777.61   832.92
                              852.59   870.15   910.34   973.99  1002.58
                             1049.99  1092.24  1122.86  1124.55  1268.36
                             1306.76  1317.25  1390.71  1403.59  1474.69
                             1516.51  1547.93  1551.91  1557.97  1672.73
                             1735.02  1778.38  1815.93  1865.40  1972.84
                             2001.76  2013.33  2080.07  2087.61  2144.55
                             2166.13  2173.49  2179.21  2194.09  2202.39
                             2251.74  2378.14  2400.46  2433.18  2455.66
                             2492.46  4378.78  4386.37  4451.50  4472.18
                             4513.91  4547.29  4642.04  4663.56  5106.56
                             5228.48  5251.19

 Zero-point correction=                           0.205250 (Hartree/Particle)
 Thermal correction to Energy=                    0.219291
 Thermal correction to Enthalpy=                  0.220236
 Thermal correction to Gibbs Free Energy=         0.164412
 Sum of electronic and zero-point Energies=           -702.193306
 Sum of electronic and thermal Energies=              -702.179264
 Sum of electronic and thermal Enthalpies=            -702.178320
 Sum of electronic and thermal Free Energies=         -702.234143

                     E (Thermal)             CV                S
                      KCal/Mol        Cal/Mol-Kelvin    Cal/Mol-Kelvin
 Total                  137.607             52.683            117.490
 Electronic               0.000              0.000              0.000
 Translational            0.889              2.981             41.859
 Rotational               0.889              2.981             32.008
 Vibrational            135.830             46.721             43.623
 Vibration     1          0.595              1.977              4.806
 Vibration     2          0.597              1.972              4.332
 Vibration     3          0.601              1.958              3.704
 Vibration     4          0.607              1.940              3.235
 Vibration     5          0.608              1.935              3.140
 Vibration     6          0.625              1.881              2.449
 Vibration     7          0.632              1.860              2.272
 Vibration     8          0.637              1.843              2.152
 Vibration     9          0.650              1.803              1.918
 Vibration    10          0.667              1.748              1.671
 Vibration    11          0.677              1.719              1.561
 Vibration    12          0.694              1.670              1.407
 Vibration    13          0.706              1.635              1.309
 Vibration    14          0.709              1.625              1.284
 Vibration    15          0.769              1.461              0.948
 Vibration    16          0.798              1.387              0.833
 Vibration    17          0.856              1.249              0.657
 Vibration    18          0.870              1.217              0.622
 Vibration    19          0.896              1.161              0.564
 Vibration    20          0.935              1.077              0.487
 Vibration    21          0.950              1.048              0.463
 Vibration    22          0.963              1.022              0.441

                           ! Non-Optimized Parameters !
 Normal termination of Gaussian 16 at Thu Dec 10 15:33:47 2020.

 ----------------------------------------------------------------------
 # B3LYP/6-311++G(d,p) empiricaldispersion=gd3bj scf=xqc pop=npa geom=c
 heck
 ----------------------------------------------------------------------

 ---------------------------------------
 CID_136812406_JID_5293_Energie_neutraal
 ---------------------------------------
 Structure from the checkpoint file:  "JID_5293.chk"
 Charge =  0 Multiplicity = 1

 SCF Done:  E(RB3LYP) =  -702.599433121     A.U. after   19 cycles
 Normal termination of Gaussian 16 at Thu Dec 10 15:37:37 2020.

 ----------------------------------------------------------------------
 # B3LYP/6-311++G(d,p) empiricaldispersion=gd3bj scf=xqc pop=npa geom=c
 heck
 ----------------------------------------------------------------------

 -------------------------------------
 CID_136812406_JID_5293_Energie_kation
 -------------------------------------
 Structure from the checkpoint file:  "JID_5293.chk"
 Charge =  1 Multiplicity = 2

 SCF Done:  E(UB3LYP) =  -702.320678578     A.U. after   29 cycles
 Normal termination of Gaussian 16 at Thu Dec 10 15:48:08 2020.
 Gaussian 16:  ES64L-G16RevA.03 25-Dec-2016

 ----------------------------------------------------------------------
 # B3LYP/6-311++G(d,p) empiricaldispersion=gd3bj scf=xqc pop=npa geom=c
 heck
 ----------------------------------------------------------------------

 ------------------------------------
 CID_136812406_JID_5293_Energie_anion
 ------------------------------------
 Structure from the checkpoint file:  "JID_5293.chk"
 Charge = -1 Multiplicity = 2

                         Standard orientation:
 ---------------------------------------------------------------------
 Center     Atomic      Atomic             Coordinates (Angstroms)
 Number     Number       Type             X           Y           Z
 ---------------------------------------------------------------------
      1          6           0        4.805584   -0.156339    0.201854
      2          6           0        3.310610   -0.094172    0.081421
      3          6           0        2.606886    0.997093   -0.319994
      4          6           0        1.150134    1.009470   -0.439868
      5          8           0        0.529448    1.995120   -0.854155
      6          6           0        0.500896   -0.253761   -0.043497
      7          6           0        1.261483   -1.315068    0.348796
      8          7           0        2.625539   -1.245227    0.408341
      9          6           0       -0.957635   -0.421977   -0.121642
     10          7           0       -1.428469   -1.580855   -0.555158
     11          8           0       -2.834802   -1.460698   -0.453416
     12          6           0       -3.127329   -0.240240    0.032286
     13          6           0       -1.989041    0.484656    0.274263
     14          6           0       -1.892953    1.853778    0.870509
     15          7           0       -4.464447    0.028931    0.252026
     16          1           0        5.248881    0.801100   -0.077830
     17          1           0        5.225097   -0.930642   -0.453072
     18          1           0        5.112881   -0.387082    1.229949
     19          1           0        3.128983    1.908007   -0.590588
     20          1           0        0.816078   -2.263659    0.624207
     21          1           0        3.143707   -2.056170    0.713978
     22          1           0       -2.833238    2.125881    1.365069
     23          1           0       -1.102964    1.895639    1.628031
     24          1           0       -1.644685    2.607119    0.118570
     25          1           0       -5.085057   -0.580640   -0.268211
     26          1           0       -4.707015    1.004482    0.129240
 ---------------------------------------------------------------------

 SCF Done:  E(UB3LYP) =  -702.597353401     A.U. after   33 cycles
 SCF Done:  E(UB3LYP) =  -702.597353401     a.u. after    1 cycles

 The electronic state is 2-A.
 Alpha  occ. eigenvalues --  -19.10291 -18.97495 -14.27944 -14.24901 -14.24806
 Alpha  occ. eigenvalues --  -10.17245 -10.14357 -10.14299 -10.13403 -10.11448
 Alpha  occ. eigenvalues --  -10.08873 -10.08750 -10.07782 -10.07407 -10.07324
 Alpha  occ. eigenvalues --   -1.04002  -0.91176  -0.89210  -0.84452  -0.77528
 Alpha  occ. eigenvalues --   -0.71062  -0.69448  -0.69115  -0.62349  -0.60295
 Alpha  occ. eigenvalues --   -0.56111  -0.52033  -0.51162  -0.49461  -0.46628
 Alpha  occ. eigenvalues --   -0.43339  -0.41822  -0.40354  -0.37723  -0.37207
 Alpha  occ. eigenvalues --   -0.35982  -0.35158  -0.34236  -0.32931  -0.31784
 Alpha  occ. eigenvalues --   -0.31196  -0.30917  -0.30475  -0.28818  -0.28375
 Alpha  occ. eigenvalues --   -0.28100  -0.26814  -0.25137  -0.20891  -0.20769
 Alpha  occ. eigenvalues --   -0.16815  -0.13999  -0.12964  -0.12244   0.03465
 Alpha virt. eigenvalues --    0.04522   0.06006   0.06977   0.07285   0.07940
 Alpha virt. eigenvalues --    0.09096   0.09427   0.10146   0.10930   0.11042
 Alpha virt. eigenvalues --    0.11485   0.12129   0.13054   0.13287   0.14095

  Beta  occ. eigenvalues --  -19.10282 -18.97495 -14.27869 -14.24855 -14.24792
  Beta  occ. eigenvalues --  -10.17239 -10.14353 -10.14301 -10.13382 -10.11444
  Beta  occ. eigenvalues --  -10.08868 -10.08689 -10.07783 -10.07393 -10.07315
  Beta  occ. eigenvalues --   -1.03987  -0.91166  -0.89124  -0.84394  -0.77504
  Beta  occ. eigenvalues --   -0.71017  -0.69422  -0.69059  -0.62277  -0.60270
  Beta  occ. eigenvalues --   -0.56053  -0.51971  -0.51083  -0.49406  -0.46547
  Beta  occ. eigenvalues --   -0.43290  -0.41773  -0.40302  -0.37693  -0.37162
  Beta  occ. eigenvalues --   -0.35930  -0.35131  -0.34187  -0.32890  -0.31748
  Beta  occ. eigenvalues --   -0.31160  -0.30860  -0.30447  -0.28789  -0.28359
  Beta  occ. eigenvalues --   -0.28074  -0.26780  -0.25090  -0.20856  -0.20740
  Beta  occ. eigenvalues --   -0.16773  -0.13991  -0.12929  -0.12199
  Beta virt. eigenvalues --    0.05539   0.06100   0.06559   0.07088   0.08201
  Beta virt. eigenvalues --    0.08435   0.09522   0.10019   0.10583   0.11139
  Beta virt. eigenvalues --    0.11264   0.11784   0.12239   0.13135   0.13695

 Mulliken charges and spin densities:
               1          2
     1  C    1.936161  -2.674192
     2  C   -2.000426   1.469966
     3  C    1.953698  -1.107636
     4  C   -1.405560   0.153661
     5  O   -0.342881  -0.003000
     6  C    2.435030  -1.023408
     7  C   -1.018721   0.775523
     8  N   -0.279173   0.251851
     9  C    0.768477  -0.700074
    10  N   -0.491929   0.051469
    11  O    0.145742  -0.022852
    12  C   -0.517100   0.382759
    13  C    0.377046  -0.319071
    14  C   -0.425223  -0.312237
    15  N   -0.339979   0.009289
    16  H   -0.195163   0.353627
    17  H   -0.372673   0.545315
    18  H   -0.474689   0.651634
    19  H    0.081340   0.113970
    20  H   -0.191389   0.426028
    21  H   -0.825651   1.175180
    22  H    0.030612   0.068906
    23  H    0.129917   0.019013
    24  H    0.169116   0.044583
    25  H   -0.062124   0.330681
    26  H   -0.084457   0.339016
 Sum of Mulliken charges =  -1.00000   1.00000

 Dipole moment (field-independent basis, Debye):
    X=             -4.7009    Y=              3.7201    Z=             -0.5358  Tot=              6.0187
 Quadrupole moment (field-independent basis, Debye-Ang):
   XX=           -175.2330   YY=           -131.9459   ZZ=           -113.9960
   XY=             16.4539   XZ=             -8.9254   YZ=              6.6104

 Summary of Natural Population Analysis:

                                       Natural Population
                Natural  -----------------------------------------------
    Atom  No    Charge         Core      Valence    Rydberg      Total
 -----------------------------------------------------------------------
      C    1   -0.30162      0.99963     2.29583    0.00616     3.30162
      C    2    0.11406      0.99951     1.87476    0.01166     2.88594
      C    3   -0.15669      0.99947     2.14630    0.01093     3.15669
      C    4    0.23131      0.99956     1.74889    0.02024     2.76869
      O    5   -0.32954      0.99989     3.32371    0.00595     4.32954
      C    6   -0.09591      0.99944     2.08521    0.01125     3.09591
      C    7    0.05433      0.99951     1.93366    0.01249     2.94567
      N    8   -0.26447      0.99964     2.75335    0.01147     3.76447
      C    9    0.09070      0.99953     1.89529    0.01447     2.90930
      N   10   -0.09714      0.99968     2.58607    0.01138     3.59714
      O   11   -0.18172      0.99985     3.17351    0.00836     4.18172
      C   12    0.26007      0.99943     1.72404    0.01646     2.73993
      C   13   -0.09609      0.99941     2.08767    0.00901     3.09609
      C   14   -0.29278      0.99964     2.28815    0.00499     3.29278
      N   15   -0.40221      0.99971     2.89250    0.01001     3.90221
      H   16    0.10770      0.00000     0.39130    0.00099     0.39230
      H   17    0.11198      0.00000     0.38626    0.00176     0.38802
      H   18    0.11332      0.00000     0.38411    0.00257     0.38668
      H   19    0.10698      0.00000     0.39203    0.00099     0.39302
      H   20    0.11043      0.00000     0.38788    0.00168     0.38957
      H   21    0.21287      0.00000     0.25978    0.02735     0.28713
      H   22    0.09547      0.00000     0.40351    0.00101     0.40453
      H   23    0.10596      0.00000     0.39299    0.00105     0.39404
      H   24    0.11758      0.00000     0.38101    0.00140     0.38242
      H   25    0.19239      0.00000     0.30505    0.00256     0.30761
      H   26    0.19300      0.00000     0.30456    0.00244     0.30700
 =======================================================================
   * Total *   -0.00000     14.99392    38.79742    0.20866    54.00000

 Normal termination of Gaussian 16 at Thu Dec 10 15:57:54 2020.
