 Gaussian 16, Revision A.03,

 -----------------------------------------------------------
 # opt freq B3LYP/6-31G(d) empiricaldispersion=gd3bj scf=xqc
 -----------------------------------------------------------

 -------------------------------
 CID_150907567_JID_1233_neutraal
 -------------------------------
 Symbolic Z-matrix:
 Charge =  0 Multiplicity = 1

 SCF Done:  E(RB3LYP) =  -573.291681198     A.U. after   16 cycles
 SCF Done:  E(RB3LYP) =  -573.307993708     A.U. after   16 cycles
 SCF Done:  E(RB3LYP) =  -573.311036235     A.U. after   16 cycles
 SCF Done:  E(RB3LYP) =  -573.312982948     A.U. after   16 cycles
 SCF Done:  E(RB3LYP) =  -573.314555158     A.U. after   17 cycles
 SCF Done:  E(RB3LYP) =  -573.315551736     A.U. after   15 cycles
 SCF Done:  E(RB3LYP) =  -573.315794461     A.U. after   16 cycles
 SCF Done:  E(RB3LYP) =  -573.315992101     A.U. after   13 cycles
 SCF Done:  E(RB3LYP) =  -573.316021911     A.U. after   13 cycles
 SCF Done:  E(RB3LYP) =  -573.316076557     A.U. after   13 cycles
 SCF Done:  E(RB3LYP) =  -573.316092573     A.U. after   11 cycles
 SCF Done:  E(RB3LYP) =  -573.316099740     A.U. after   12 cycles
 SCF Done:  E(RB3LYP) =  -573.316102466     A.U. after   11 cycles
 SCF Done:  E(RB3LYP) =  -573.316102879     A.U. after    9 cycles
 Optimization completed.
    -- Stationary point found.
 Normal termination of Gaussian 16 at Tue Dec  8 19:28:01 2020.

 --------------------------------------------------------------------
 #N Geom=AllCheck Guess=TCheck SCRF=Check GenChk RB3LYP/6-31G(d) Freq
 --------------------------------------------------------------------

 Structure from the checkpoint file:  "JID_1233.chk"
 -------------------------------
 CID_150907567_JID_1233_neutraal
 -------------------------------
 Charge =  0 Multiplicity = 1

 SCF Done:  E(RB3LYP) =  -573.316102879     A.U. after    1 cycles

  Exact polarizability:  98.125  11.685 102.777   0.009   0.005  29.321
 Approx polarizability: 186.888  40.258 195.108   0.040   0.022  44.563

                      1                      2                      3
                      A                      A                      A
 Frequencies --     53.6601                72.0887                79.4793
 Red. masses --     12.1057                13.6852                12.7541
 Frc consts  --      0.0205                 0.0419                 0.0475
 IR Inten    --      0.6934                 0.6432                 0.2201

                      4                      5                      6
                      A                      A                      A
 Frequencies --    148.7393               274.1092               278.8975
 Red. masses --     12.3657                13.8093                13.6780
 Frc consts  --      0.1612                 0.6113                 0.6268
 IR Inten    --      1.9350                 0.0403                 6.3632

                      7                      8                      9
                      A                      A                      A
 Frequencies --    372.0285               449.9185               500.1092
 Red. masses --     12.6186                 1.5191                10.6586
 Frc consts  --      1.0290                 0.1812                 1.5706
 IR Inten    --     11.1035                46.6021                 3.5868

                     10                     11                     12
                      A                      A                      A
 Frequencies --    526.3103               533.1243               548.0951
 Red. masses --     13.9064                12.5879                12.6217
 Frc consts  --      2.2696                 2.1079                 2.2340
 IR Inten    --      7.1115                 0.1512                27.2210

                     13                     14                     15
                      A                      A                      A
 Frequencies --    595.9122               699.0395               716.4229
 Red. masses --     11.9862                 2.8636                13.0847
 Frc consts  --      2.5078                 0.8244                 3.9569
 IR Inten    --      3.1288                46.8230                35.7172

                     16                     17                     18
                      A                      A                      A
 Frequencies --    731.8754               782.7190               989.2651
 Red. masses --     12.1654                12.4389                12.1910
 Frc consts  --      3.8393                 4.4900                 7.0294
 IR Inten    --      0.2245                 8.2533                16.1667

                     19                     20                     21
                      A                      A                      A
 Frequencies --   1150.7614              1206.9497              1246.0215
 Red. masses --      6.3160                 8.8261                 3.4000
 Frc consts  --      4.9279                 7.5753                 3.1102
 IR Inten    --    124.9632                14.5192                 5.1564

                     22                     23                     24
                      A                      A                      A
 Frequencies --   1315.7781              1361.5435              1418.9794
 Red. masses --     13.4293                12.5788                 6.3779
 Frc consts  --     13.6984                13.7389                 7.5662
 IR Inten    --      5.8924                45.3196                13.8356

                     25                     26                     27
                      A                      A                      A
 Frequencies --   1501.3697              1569.4780              1642.6360
 Red. masses --      2.1375                 6.8116                12.7351
 Frc consts  --      2.8388                 9.8858                20.2458
 IR Inten    --     27.7377               125.2454                88.9701

                     28                     29                     30
                      A                      A                      A
 Frequencies --   2285.5791              2379.2917              3673.1865
 Red. masses --     13.9895                12.7355                 1.0827
 Frc consts  --     43.0572                42.4777                 8.6065
 IR Inten    --    562.8126              1313.0260               164.2861

 - Thermochemistry -
 -------------------
 Temperature   298.150 Kelvin.  Pressure   1.00000 Atm.
 Atom     1 has atomic number  6 and mass  12.00000

 Molecular mass:   151.02426 amu.
 Principal axes and moments of inertia in atomic units:
                           1         2         3
     Eigenvalues --  1329.681881650.754632980.43626
           X            0.99861   0.05263  -0.00000
           Y           -0.05263   0.99861  -0.00000
           Z            0.00000   0.00000   1.00000
 This molecule is an asymmetric top.
 Rotational symmetry number  1.
 Warning -- assumption of classical behavior for rotation
           may cause significant error
 Rotational temperatures (Kelvin)      0.06514     0.05247     0.02906
 Rotational constants (GHZ):           1.35727     1.09328     0.60553
 Zero-point vibrational energy     174076.8 (Joules/Mol)
                                   41.60535 (Kcal/Mol)
 Warning -- explicit consideration of  13 degrees of freedom as
           vibrations may cause significant error
 Vibrational temperatures:     77.20   103.72   114.35   214.00   394.38
          (Kelvin)            401.27   535.27   647.33   719.55   757.24
                              767.05   788.59   857.38  1005.76  1030.77
                             1053.01  1126.16  1423.33  1655.69  1736.53
                             1792.75  1893.11  1958.96  2041.59  2160.14
                             2258.13  2363.39  3288.44  3423.27  5284.90

 Zero-point correction=                           0.066302 (Hartree/Particle)
 Thermal correction to Energy=                    0.075187
 Thermal correction to Enthalpy=                  0.076131
 Thermal correction to Gibbs Free Energy=         0.030619
 Sum of electronic and zero-point Energies=           -573.249801
 Sum of electronic and thermal Energies=              -573.240916
 Sum of electronic and thermal Enthalpies=            -573.239972
 Sum of electronic and thermal Free Energies=         -573.285484

                     E (Thermal)             CV                S
                      KCal/Mol        Cal/Mol-Kelvin    Cal/Mol-Kelvin
 Total                   47.181             30.528             95.789
 Electronic               0.000              0.000              0.000
 Translational            0.889              2.981             40.947
 Rotational               0.889              2.981             30.260
 Vibrational             45.403             24.566             24.582
 Vibration     1          0.596              1.976              4.678
 Vibration     2          0.598              1.967              4.095
 Vibration     3          0.600              1.963              3.904
 Vibration     4          0.618              1.904              2.688
 Vibration     5          0.676              1.721              1.570
 Vibration     6          0.679              1.713              1.540
 Vibration     7          0.744              1.530              1.071
 Vibration     8          0.809              1.361              0.796
 Vibration     9          0.856              1.250              0.658
 Vibration    10          0.881              1.192              0.596
 Vibration    11          0.888              1.177              0.580
 Vibration    12          0.903              1.144              0.548
 Vibration    13          0.954              1.040              0.457

                           ! Non-Optimized Parameters !
 Normal termination of Gaussian 16 at Tue Dec  8 19:29:42 2020.

 ----------------------------------------------------------------------
 # B3LYP/6-311++G(d,p) empiricaldispersion=gd3bj scf=xqc pop=npa geom=c
 heck
 ----------------------------------------------------------------------

 ---------------------------------------
 CID_150907567_JID_1233_Energie_neutraal
 ---------------------------------------
 Structure from the checkpoint file:  "JID_1233.chk"
 Charge =  0 Multiplicity = 1

 SCF Done:  E(RB3LYP) =  -573.476612747     A.U. after   16 cycles
 Normal termination of Gaussian 16 at Tue Dec  8 19:30:18 2020.

 ----------------------------------------------------------------------
 # B3LYP/6-311++G(d,p) empiricaldispersion=gd3bj scf=xqc pop=npa geom=c
 heck
 ----------------------------------------------------------------------

 -------------------------------------
 CID_150907567_JID_1233_Energie_kation
 -------------------------------------
 Structure from the checkpoint file:  "JID_1233.chk"
 Charge =  1 Multiplicity = 2

 SCF Done:  E(UB3LYP) =  -573.148339317     A.U. after   22 cycles
 Normal termination of Gaussian 16 at Tue Dec  8 19:31:32 2020.
 Gaussian 16:  ES64L-G16RevA.03 25-Dec-2016

 ----------------------------------------------------------------------
 # B3LYP/6-311++G(d,p) empiricaldispersion=gd3bj scf=xqc pop=npa geom=c
 heck
 ----------------------------------------------------------------------

 ------------------------------------
 CID_150907567_JID_1233_Energie_anion
 ------------------------------------
 Structure from the checkpoint file:  "JID_1233.chk"
 Charge = -1 Multiplicity = 2

                         Standard orientation:
 ---------------------------------------------------------------------
 Center     Atomic      Atomic             Coordinates (Angstroms)
 Number     Number       Type             X           Y           Z
 ---------------------------------------------------------------------
      1          6           0       -2.447230    0.004926    0.000167
      2          7           0       -1.247269   -0.198967    0.000656
      3          6           0       -0.123774    0.595880    0.000317
      4          7           0       -0.131030    1.932734   -0.000362
      5          7           0        1.164854    2.230744   -0.000547
      6          7           0        2.024418    1.215449    0.000048
      7          6           0        1.222388    0.147963    0.000285
      8          7           0        1.783267   -1.127727    0.000786
      9          7           0        1.015378   -2.104320   -0.000105
     10          7           0        0.469036   -3.102752   -0.000878
     11          8           0       -3.617889    0.050403   -0.000153
     12          1           0        1.484216    3.188032   -0.000567
 ---------------------------------------------------------------------

 SCF Done:  E(UB3LYP) =  -573.476807436     A.U. after   31 cycles

 The electronic state is 2-A.
 Alpha  occ. eigenvalues --  -19.07548 -14.31421 -14.30646 -14.24805 -14.24549
 Alpha  occ. eigenvalues --  -14.23407 -14.22798 -14.22370 -10.20937 -10.14173
 Alpha  occ. eigenvalues --  -10.12775  -1.01431  -1.00367  -0.99238  -0.87143
 Alpha  occ. eigenvalues --   -0.84828  -0.78545  -0.71816  -0.58897  -0.56835
 Alpha  occ. eigenvalues --   -0.47476  -0.44079  -0.41459  -0.40537  -0.38754
 Alpha  occ. eigenvalues --   -0.36715  -0.36490  -0.36102  -0.35416  -0.30807
 Alpha  occ. eigenvalues --   -0.25149  -0.25144  -0.22615  -0.21338  -0.19448
 Alpha  occ. eigenvalues --   -0.17611  -0.15643  -0.09971   0.05043
 Alpha virt. eigenvalues --    0.07220   0.08465   0.09230   0.11082   0.11313
 Alpha virt. eigenvalues --    0.13417   0.14334   0.15072   0.15806   0.16573
 Alpha virt. eigenvalues --    0.17080   0.18834   0.18907   0.19712   0.20006

  Beta  occ. eigenvalues --  -19.07484 -14.30992 -14.30580 -14.24821 -14.24549
  Beta  occ. eigenvalues --  -14.23414 -14.22823 -14.21804 -10.20848 -10.14156
  Beta  occ. eigenvalues --  -10.12683  -1.01303  -1.00248  -0.98493  -0.87085
  Beta  occ. eigenvalues --   -0.84440  -0.78488  -0.71648  -0.58775  -0.56457
  Beta  occ. eigenvalues --   -0.47360  -0.43954  -0.41288  -0.40281  -0.38674
  Beta  occ. eigenvalues --   -0.36532  -0.35810  -0.35222  -0.34478  -0.29525
  Beta  occ. eigenvalues --   -0.25138  -0.24860  -0.22354  -0.21220  -0.19426
  Beta  occ. eigenvalues --   -0.16490  -0.15622  -0.09836
  Beta virt. eigenvalues --    0.08497   0.08881   0.09754   0.11086   0.11407
  Beta virt. eigenvalues --    0.12192   0.13684   0.14136   0.15020   0.15824
  Beta virt. eigenvalues --    0.16670   0.17265   0.18612   0.18881   0.19777

 Mulliken charges and spin densities:
               1          2
     1  C    0.424277   0.008781
     2  N   -0.096600  -0.014610
     3  C   -0.356962   0.330984
     4  N   -0.027507  -0.177357
     5  N    0.255119  -0.226609
     6  N   -0.069573  -0.093196
     7  C    0.144520  -0.340876
     8  N   -0.555339   0.354317
     9  N    0.711753  -0.095759
    10  N   -0.374192   0.115748
    11  O   -0.292678   0.012854
    12  H   -0.762818   1.125723
 Sum of Mulliken charges =  -1.00000   1.00000

 Dipole moment (field-independent basis, Debye):
    X=             -3.3686    Y=             -1.9803    Z=              0.0007  Tot=              3.9076
 Quadrupole moment (field-independent basis, Debye-Ang):
   XX=            -97.8294   YY=           -113.7343   ZZ=            -67.4653
   XY=             -6.1830   XZ=             -0.0034   YZ=              0.0009

 Summary of Natural Population Analysis:

                                       Natural Population
                Natural  -----------------------------------------------
    Atom  No    Charge         Core      Valence    Rydberg      Total
 -----------------------------------------------------------------------
      C    1    0.44540      0.99962     1.53662    0.01836     2.55460
      N    2   -0.27537      0.99948     2.76799    0.00790     3.77537
      C    3    0.11329      0.99946     1.87147    0.01578     2.88671
      N    4   -0.14714      0.99970     2.63370    0.01374     3.64714
      N    5   -0.06792      0.99975     2.55126    0.01691     3.56792
      N    6   -0.14525      0.99970     2.63181    0.01374     3.64525
      C    7    0.14219      0.99946     1.84153    0.01682     2.85781
      N    8   -0.20279      0.99964     2.68853    0.01462     3.70279
      N    9    0.15317      0.99970     2.33224    0.01488     3.34683
      N   10    0.03053      0.99982     2.45557    0.01408     3.46947
      O   11   -0.25285      0.99987     3.24604    0.00693     4.25285
      H   12    0.20675      0.00000     0.25733    0.03593     0.29325
 =======================================================================
   * Total *   -0.00000     10.99621    26.81410    0.18969    38.00000

 Normal termination of Gaussian 16 at Tue Dec  8 19:33:14 2020.
