 Gaussian 16, Revision A.03,

 -----------------------------------------------------------
 # opt freq B3LYP/6-31G(d) empiricaldispersion=gd3bj scf=xqc
 -----------------------------------------------------------

 ------------------------------
 CID_23622846_JID_3591_neutraal
 ------------------------------
 Symbolic Z-matrix:
 Charge =  0 Multiplicity = 1

 SCF Done:  E(RB3LYP) =  -578.999995467     A.U. after   16 cycles
 SCF Done:  E(RB3LYP) =  -579.005816681     A.U. after   15 cycles
 SCF Done:  E(RB3LYP) =  -579.008105613     A.U. after   17 cycles
 SCF Done:  E(RB3LYP) =  -579.008739900     A.U. after   14 cycles
 SCF Done:  E(RB3LYP) =  -579.008965035     A.U. after   13 cycles
 SCF Done:  E(RB3LYP) =  -579.009010289     A.U. after   12 cycles
 SCF Done:  E(RB3LYP) =  -579.009033654     A.U. after   12 cycles
 SCF Done:  E(RB3LYP) =  -579.009042285     A.U. after   12 cycles
 SCF Done:  E(RB3LYP) =  -579.009042898     A.U. after   10 cycles
 SCF Done:  E(RB3LYP) =  -579.009043265     A.U. after    9 cycles
 SCF Done:  E(RB3LYP) =  -579.009043442     A.U. after    8 cycles
 SCF Done:  E(RB3LYP) =  -579.009043526     A.U. after    8 cycles
 Optimization completed.
    -- Stationary point found.
 Normal termination of Gaussian 16 at Wed Dec  9 23:23:37 2020.

 --------------------------------------------------------------------
 #N Geom=AllCheck Guess=TCheck SCRF=Check GenChk RB3LYP/6-31G(d) Freq
 --------------------------------------------------------------------

 Structure from the checkpoint file:  "JID_3591.chk"
 ------------------------------
 CID_23622846_JID_3591_neutraal
 ------------------------------
 Charge =  0 Multiplicity = 1

 SCF Done:  E(RB3LYP) =  -579.009043526     A.U. after    1 cycles

  Exact polarizability: 151.970  -0.698 111.816  -1.832   0.374 105.350
 Approx polarizability: 186.035  -4.413 164.222  -2.412   2.408 157.481

                      1                      2                      3
                      A                      A                      A
 Frequencies --     27.1957                36.5966                48.3978
 Red. masses --      3.9537                 3.9337                 3.3366
 Frc consts  --      0.0017                 0.0031                 0.0046
 IR Inten    --      1.4767                 0.6306                 0.3167

                      4                      5                      6
                      A                      A                      A
 Frequencies --     64.2557                75.4697               105.8991
 Red. masses --      3.3293                 3.0456                 2.6067
 Frc consts  --      0.0081                 0.0102                 0.0172
 IR Inten    --      0.1945                 0.6688                 0.3024

                      7                      8                      9
                      A                      A                      A
 Frequencies --    126.4490               130.1092               180.7707
 Red. masses --      3.3944                 2.6649                 1.8069
 Frc consts  --      0.0320                 0.0266                 0.0348
 IR Inten    --      0.0586                 0.8478                 0.0886

                     10                     11                     12
                      A                      A                      A
 Frequencies --    197.7805               241.3951               247.0771
 Red. masses --      1.3440                 2.1773                 1.9630
 Frc consts  --      0.0310                 0.0748                 0.0706
 IR Inten    --      1.3631                 0.1557                 0.3183

                     13                     14                     15
                      A                      A                      A
 Frequencies --    267.2527               304.2163               320.5675
 Red. masses --      2.7493                 1.9821                 2.2452
 Frc consts  --      0.1157                 0.1081                 0.1359
 IR Inten    --      1.7563                 0.6723                 1.1238

                     16                     17                     18
                      A                      A                      A
 Frequencies --    346.3467               362.0291               387.4624
 Red. masses --      2.4255                 3.0769                 1.9638
 Frc consts  --      0.1714                 0.2376                 0.1737
 IR Inten    --      3.8924                 1.0406                 0.4996

                     19                     20                     21
                      A                      A                      A
 Frequencies --    430.8616               479.6372               509.8506
 Red. masses --      1.9891                 2.3709                 2.3546
 Frc consts  --      0.2176                 0.3214                 0.3606
 IR Inten    --      0.1328                 6.8915                 2.6073

                     22                     23                     24
                      A                      A                      A
 Frequencies --    560.6580               616.0728               707.1356
 Red. masses --      2.8059                 1.5205                 1.2792
 Frc consts  --      0.5197                 0.3400                 0.3769
 IR Inten    --      1.4031                88.6782                17.0182

                     25                     26                     27
                      A                      A                      A
 Frequencies --    725.9191               765.5049               779.6845
 Red. masses --      1.4690                 1.9008                 5.3272
 Frc consts  --      0.4561                 0.6563                 1.9081
 IR Inten    --      3.2375                 9.5039                33.6352

                     28                     29                     30
                      A                      A                      A
 Frequencies --    804.3701               825.2701               853.9375
 Red. masses --      2.4259                 2.3628                 1.7250
 Frc consts  --      0.9248                 0.9481                 0.7411
 IR Inten    --      8.2441                 4.8277                 5.3313

                     31                     32                     33
                      A                      A                      A
 Frequencies --    884.0278               918.7338               932.2889
 Red. masses --      1.8876                 1.8356                 1.7263
 Frc consts  --      0.8692                 0.9129                 0.8840
 IR Inten    --      1.2399                 0.4936                 2.6706

                     34                     35                     36
                      A                      A                      A
 Frequencies --    980.9357               991.3800              1003.1164
 Red. masses --      1.6254                 1.9929                 1.5849
 Frc consts  --      0.9215                 1.1540                 0.9397
 IR Inten    --      3.7153                 0.6926                 1.9871

                     37                     38                     39
                      A                      A                      A
 Frequencies --   1043.8454              1068.3901              1071.5731
 Red. masses --      1.6384                 1.9861                 1.4564
 Frc consts  --      1.0518                 1.3357                 0.9853
 IR Inten    --      2.1634                 3.3327                 3.3251

                     40                     41                     42
                      A                      A                      A
 Frequencies --   1087.8636              1120.3123              1128.1709
 Red. masses --      2.3879                 2.0751                 1.4079
 Frc consts  --      1.6650                 1.5345                 1.0558
 IR Inten    --      5.4531                 3.2198                 5.1990

                     43                     44                     45
                      A                      A                      A
 Frequencies --   1140.7216              1152.6165              1180.5843
 Red. masses --      1.8858                 1.2925                 1.5709
 Frc consts  --      1.4458                 1.0117                 1.2900
 IR Inten    --      1.2699                 9.1212                 2.2117

                     46                     47                     48
                      A                      A                      A
 Frequencies --   1191.1621              1216.0150              1232.3498
 Red. masses --      1.9521                 1.7183                 1.4146
 Frc consts  --      1.6319                 1.4970                 1.2657
 IR Inten    --     25.4568                14.5186                 3.4097

                     49                     50                     51
                      A                      A                      A
 Frequencies --   1255.9820              1272.0219              1290.2426
 Red. masses --      1.4144                 1.4477                 1.2652
 Frc consts  --      1.3146                 1.3801                 1.2409
 IR Inten    --      1.2539                 2.3994                 1.5163

                     52                     53                     54
                      A                      A                      A
 Frequencies --   1313.4912              1331.9814              1353.1728
 Red. masses --      1.1955                 1.1417                 1.1125
 Frc consts  --      1.2152                 1.1935                 1.2002
 IR Inten    --      2.3056                 4.4535                 0.5571

                     55                     56                     57
                      A                      A                      A
 Frequencies --   1373.5975              1376.7087              1388.8826
 Red. masses --      1.3805                 1.5958                 1.3648
 Frc consts  --      1.5346                 1.7820                 1.5512
 IR Inten    --     34.2924                 3.3833                 5.1325

                     58                     59                     60
                      A                      A                      A
 Frequencies --   1394.0190              1407.1290              1412.6905
 Red. masses --      1.5008                 1.3769                 1.4361
 Frc consts  --      1.7184                 1.6063                 1.6886
 IR Inten    --      4.0433                 0.7721                 1.7073

                     61                     62                     63
                      A                      A                      A
 Frequencies --   1426.5533              1427.0588              1443.9836
 Red. masses --      1.4195                 1.4366                 1.2736
 Frc consts  --      1.7020                 1.7238                 1.5647
 IR Inten    --      1.5509                 4.0022                 5.3559

                     64                     65                     66
                      A                      A                      A
 Frequencies --   1483.8013              1500.3939              1506.4875
 Red. masses --      1.1966                 1.2032                 1.0877
 Frc consts  --      1.5523                 1.5959                 1.4544
 IR Inten    --      0.7522                24.9048                 3.6902

                     67                     68                     69
                      A                      A                      A
 Frequencies --   1513.0700              1520.5029              1521.0931
 Red. masses --      1.0822                 1.0701                 1.0829
 Frc consts  --      1.4597                 1.4576                 1.4762
 IR Inten    --      4.6132                 4.5667                 2.7748

                     70                     71                     72
                      A                      A                      A
 Frequencies --   1525.6010              1530.1516              1534.1690
 Red. masses --      1.0701                 1.0816                 1.0645
 Frc consts  --      1.4674                 1.4921                 1.4763
 IR Inten    --     13.0488                 0.8806                 9.0737

                     73                     74                     75
                      A                      A                      A
 Frequencies --   1538.2590              1538.9478              1545.6810
 Red. masses --      1.0695                 1.0755                 1.0786
 Frc consts  --      1.4910                 1.5008                 1.5182
 IR Inten    --      4.0547                 4.8012                 3.0835

                     76                     77                     78
                      A                      A                      A
 Frequencies --   1549.3689              1682.5842              2912.9274
 Red. masses --      1.0705                12.8772                 1.0782
 Frc consts  --      1.5140                21.4796                 5.3902
 IR Inten    --     13.9877               115.1269                41.3296

                     79                     80                     81
                      A                      A                      A
 Frequencies --   2964.2564              3027.5722              3029.9920
 Red. masses --      1.0610                 1.0623                 1.0671
 Frc consts  --      5.4931                 5.7372                 5.7724
 IR Inten    --     81.8791                28.3781                 8.3891

                     82                     83                     84
                      A                      A                      A
 Frequencies --   3034.1611              3037.0772              3039.3342
 Red. masses --      1.0636                 1.0647                 1.0610
 Frc consts  --      5.7691                 5.7862                 5.7747
 IR Inten    --     45.7002                12.6624                18.8734

                     85                     86                     87
                      A                      A                      A
 Frequencies --   3045.4977              3048.9641              3058.6071
 Red. masses --      1.0405                 1.0628                 1.0935
 Frc consts  --      5.6859                 5.8212                 6.0274
 IR Inten    --     24.0141                 2.5398                11.1135

                     88                     89                     90
                      A                      A                      A
 Frequencies --   3060.1437              3063.3896              3067.2767
 Red. masses --      1.0718                 1.0976                 1.0965
 Frc consts  --      5.9134                 6.0689                 6.0778
 IR Inten    --     13.3624                 1.3775                40.2423

                     91                     92                     93
                      A                      A                      A
 Frequencies --   3075.0060              3081.3909              3083.0792
 Red. masses --      1.0950                 1.1016                 1.0984
 Frc consts  --      6.1006                 6.1625                 6.1516
 IR Inten    --    113.2900               117.8837                55.5471

                     94                     95                     96
                      A                      A                      A
 Frequencies --   3102.8876              3110.1359              3110.2599
 Red. masses --      1.0731                 1.1005                 1.1012
 Frc consts  --      6.0874                 6.2721                 6.2765
 IR Inten    --     38.5580                23.4590                48.6447

                     97                     98                     99
                      A                      A                      A
 Frequencies --   3116.7900              3148.6022              3548.3083
 Red. masses --      1.1020                 1.1034                 1.0746
 Frc consts  --      6.3071                 6.4449                 7.9712
 IR Inten    --     48.9550                16.7155                 0.5100

 - Thermochemistry -
 -------------------
 Temperature   298.150 Kelvin.  Pressure   1.00000 Atm.
 Atom     1 has atomic number  6 and mass  12.00000

 Molecular mass:   186.17321 amu.
 Principal axes and moments of inertia in atomic units:
                           1         2         3
     Eigenvalues --  1012.186256781.938947016.76318
           X            0.99988   0.01501   0.00221
           Y           -0.01487   0.99844  -0.05382
           Z           -0.00301   0.05378   0.99855
 This molecule is an asymmetric top.
 Rotational symmetry number  1.
 Warning -- assumption of classical behavior for rotation
           may cause significant error
 Rotational temperatures (Kelvin)      0.08557     0.01277     0.01234
 Rotational constants (GHZ):           1.78301     0.26611     0.25720
 Zero-point vibrational energy     840948.1 (Joules/Mol)
                                  200.99142 (Kcal/Mol)
 Warning -- explicit consideration of  23 degrees of freedom as
           vibrations may cause significant error
 Vibrational temperatures:     39.13    52.65    69.63    92.45   108.58
          (Kelvin)            152.37   181.93   187.20   260.09   284.56
                              347.31   355.49   384.52   437.70   461.23
                              498.32   520.88   557.47   619.91   690.09
                              733.56   806.66   886.39  1017.41  1044.44
                             1101.39  1121.79  1157.31  1187.38  1228.63
                             1271.92  1321.85  1341.36  1411.35  1426.37
                             1443.26  1501.86  1537.18  1541.75  1565.19
                             1611.88  1623.19  1641.24  1658.36  1698.60
                             1713.82  1749.57  1773.08  1807.08  1830.16
                             1856.37  1889.82  1916.42  1946.91  1976.30
                             1980.78  1998.29  2005.68  2024.54  2032.55
                             2052.49  2053.22  2077.57  2134.86  2158.73
                             2167.50  2176.97  2187.66  2188.51  2195.00
                             2201.55  2207.33  2213.21  2214.20  2223.89
                             2229.20  2420.86  4191.05  4264.90  4356.00
                             4359.48  4365.48  4369.68  4372.92  4381.79
                             4386.78  4400.65  4402.86  4407.53  4413.13
                             4424.25  4433.43  4435.86  4464.36  4474.79
                             4474.97  4484.37  4530.14  5105.22

 Zero-point correction=                           0.320300 (Hartree/Particle)
 Thermal correction to Energy=                    0.336245
 Thermal correction to Enthalpy=                  0.337189
 Thermal correction to Gibbs Free Energy=         0.275436
 Sum of electronic and zero-point Energies=           -578.688743
 Sum of electronic and thermal Energies=              -578.672799
 Sum of electronic and thermal Enthalpies=            -578.671855
 Sum of electronic and thermal Free Energies=         -578.733608

                     E (Thermal)             CV                S
                      KCal/Mol        Cal/Mol-Kelvin    Cal/Mol-Kelvin
 Total                  210.997             57.828            129.971
 Electronic               0.000              0.000              0.000
 Translational            0.889              2.981             41.571
 Rotational               0.889              2.981             32.243
 Vibrational            209.219             51.867             56.157
 Vibration     1          0.593              1.984              6.024
 Vibration     2          0.594              1.982              5.435
 Vibration     3          0.595              1.978              4.882
 Vibration     4          0.597              1.971              4.322
 Vibration     5          0.599              1.965              4.005
 Vibration     6          0.605              1.945              3.343
 Vibration     7          0.611              1.927              2.999
 Vibration     8          0.612              1.923              2.944
 Vibration     9          0.630              1.866              2.320
 Vibration    10          0.637              1.843              2.154
 Vibration    11          0.658              1.777              1.793
 Vibration    12          0.661              1.768              1.751
 Vibration    13          0.672              1.733              1.614
 Vibration    14          0.695              1.666              1.394
 Vibration    15          0.706              1.634              1.307
 Vibration    16          0.724              1.583              1.183
 Vibration    17          0.736              1.550              1.113
 Vibration    18          0.756              1.497              1.010
 Vibration    19          0.792              1.403              0.856
 Vibration    20          0.836              1.295              0.711
 Vibration    21          0.865              1.228              0.634
 Vibration    22          0.916              1.116              0.523
 Vibration    23          0.976              0.998              0.423

                           ! Non-Optimized Parameters !
 Normal termination of Gaussian 16 at Wed Dec  9 23:33:21 2020.

 ----------------------------------------------------------------------
 # B3LYP/6-311++G(d,p) empiricaldispersion=gd3bj scf=xqc pop=npa geom=c
 heck
 ----------------------------------------------------------------------

 --------------------------------------
 CID_23622846_JID_3591_Energie_neutraal
 --------------------------------------
 Structure from the checkpoint file:  "JID_3591.chk"
 Charge =  0 Multiplicity = 1

 SCF Done:  E(RB3LYP) =  -579.180460893     A.U. after   15 cycles
 Normal termination of Gaussian 16 at Wed Dec  9 23:38:43 2020.

 ----------------------------------------------------------------------
 # B3LYP/6-311++G(d,p) empiricaldispersion=gd3bj scf=xqc pop=npa geom=c
 heck
 ----------------------------------------------------------------------

 ------------------------------------
 CID_23622846_JID_3591_Energie_kation
 ------------------------------------
 Structure from the checkpoint file:  "JID_3591.chk"
 Charge =  1 Multiplicity = 2

 SCF Done:  E(UB3LYP) =  -578.873137178     A.U. after   27 cycles
 Normal termination of Gaussian 16 at Wed Dec  9 23:52:24 2020.
 Gaussian 16:  ES64L-G16RevA.03 25-Dec-2016

 ----------------------------------------------------------------------
 # B3LYP/6-311++G(d,p) empiricaldispersion=gd3bj scf=xqc pop=npa geom=c
 heck
 ----------------------------------------------------------------------

 -----------------------------------
 CID_23622846_JID_3591_Energie_anion
 -----------------------------------
 Structure from the checkpoint file:  "JID_3591.chk"
 Charge = -1 Multiplicity = 2

                         Standard orientation:
 ---------------------------------------------------------------------
 Center     Atomic      Atomic             Coordinates (Angstroms)
 Number     Number       Type             X           Y           Z
 ---------------------------------------------------------------------
      1          6           0       -5.044696   -0.145244   -1.096784
      2          6           0       -4.293822    0.654092   -0.027788
      3          6           0       -3.398734   -0.205317    0.878164
      4          6           0       -2.300262   -0.996245    0.149599
      5          6           0       -1.338683   -0.145679   -0.695019
      6          6           0       -0.607651    0.964966    0.075688
      7          6           0        0.207358    0.485321    1.285997
      8          6           0        1.266773   -0.583913    0.976877
      9          6           0        2.284432   -0.179991   -0.097164
     10          7           0        3.139715    0.888654    0.317363
     11          6           0        3.820327    1.599188   -0.759073
     12          7           0        3.016962   -1.461865   -0.451972
     13          8           0        4.219376   -1.394853   -0.355065
     14          1           0       -4.357704   -0.613252   -1.810553
     15          1           0       -5.724022    0.497946   -1.667021
     16          1           0       -5.643388   -0.944217   -0.642046
     17          1           0       -3.692386    1.434755   -0.512252
     18          1           0       -5.019859    1.183240    0.603183
     19          1           0       -2.941328    0.441393    1.638764
     20          1           0       -4.030475   -0.916442    1.428317
     21          1           0       -1.729042   -1.565411    0.894692
     22          1           0       -2.762142   -1.747503   -0.503091
     23          1           0       -0.603655   -0.812796   -1.163746
     24          1           0       -1.890013    0.315441   -1.524295
     25          1           0        0.051922    1.500495   -0.620407
     26          1           0       -1.334516    1.709167    0.424486
     27          1           0        0.680811    1.356476    1.759849
     28          1           0       -0.467607    0.075561    2.047302
     29          1           0        1.822895   -0.827350    1.890545
     30          1           0        0.784654   -1.508966    0.644490
     31          1           0        1.749533    0.017034   -1.049410
     32          1           0        2.632201    1.534556    0.912430
     33          1           0        3.136534    1.984229   -1.537417
     34          1           0        4.374563    2.443169   -0.338144
     35          1           0        4.541031    0.930695   -1.235875
 ---------------------------------------------------------------------

 SCF Done:  E(UB3LYP) =  -579.112326175     A.U. after   33 cycles
 SCF Done:  E(UB3LYP) =  -579.189576788     a.u. after   17 cycles

 The electronic state is 2-A.
 Alpha  occ. eigenvalues --  -18.95665 -14.19268 -14.18008 -10.07388 -10.07352
 Alpha  occ. eigenvalues --  -10.07261 -10.07167 -10.06846 -10.06832 -10.06388
 Alpha  occ. eigenvalues --  -10.06363 -10.06342 -10.04850  -0.95204  -0.79011
 Alpha  occ. eigenvalues --   -0.72066  -0.69129  -0.65465  -0.62232  -0.58994
 Alpha  occ. eigenvalues --   -0.55529  -0.54511  -0.51423  -0.47440  -0.44052
 Alpha  occ. eigenvalues --   -0.42607  -0.38753  -0.38672  -0.36851  -0.35926
 Alpha  occ. eigenvalues --   -0.33914  -0.33086  -0.32708  -0.31398  -0.30850
 Alpha  occ. eigenvalues --   -0.29539  -0.28753  -0.27966  -0.27394  -0.26950
 Alpha  occ. eigenvalues --   -0.26442  -0.25211  -0.24865  -0.23650  -0.23446
 Alpha  occ. eigenvalues --   -0.22177  -0.22085  -0.21200  -0.20871  -0.20057
 Alpha  occ. eigenvalues --   -0.11361  -0.03296   0.04198
 Alpha virt. eigenvalues --    0.05439   0.07255   0.07496   0.07952   0.08985
 Alpha virt. eigenvalues --    0.09243   0.10195   0.10790   0.11014   0.11488
 Alpha virt. eigenvalues --    0.11621   0.12149   0.13201   0.13667   0.14216

  Beta  occ. eigenvalues --  -18.94951 -14.18427 -14.18010 -10.07430 -10.07335
  Beta  occ. eigenvalues --  -10.07251 -10.07160 -10.06829 -10.06822 -10.06382
  Beta  occ. eigenvalues --  -10.06353 -10.06331 -10.04815  -0.93778  -0.78972
  Beta  occ. eigenvalues --   -0.72048  -0.69090  -0.65373  -0.62044  -0.58836
  Beta  occ. eigenvalues --   -0.55465  -0.54180  -0.51172  -0.47208  -0.43835
  Beta  occ. eigenvalues --   -0.41889  -0.38705  -0.38645  -0.36806  -0.35829
  Beta  occ. eigenvalues --   -0.33821  -0.32845  -0.32431  -0.31326  -0.30810
  Beta  occ. eigenvalues --   -0.29431  -0.28537  -0.27687  -0.27018  -0.26429
  Beta  occ. eigenvalues --   -0.26170  -0.25052  -0.24194  -0.23595  -0.23078
  Beta  occ. eigenvalues --   -0.21898  -0.21246  -0.21009  -0.20519  -0.18738
  Beta  occ. eigenvalues --   -0.11274  -0.02485
  Beta virt. eigenvalues --    0.06073   0.07298   0.07636   0.08073   0.09043
  Beta virt. eigenvalues --    0.09311   0.10240   0.10852   0.11009   0.11478
  Beta virt. eigenvalues --    0.11637   0.12190   0.13144   0.13456   0.13638

 Mulliken charges and spin densities:
               1          2
     1  C    0.603015  -1.248533
     2  C   -0.571700   0.402645
     3  C   -0.050309  -0.201003
     4  C   -0.041269  -0.221105
     5  C    0.035719  -0.309478
     6  C   -0.409018   0.182056
     7  C   -0.266344   0.000013
     8  C   -0.155266  -0.009233
     9  C   -0.533214  -0.315311
    10  N   -0.012818   0.055122
    11  C   -0.228588  -0.117198
    12  N   -0.166379   0.408094
    13  O   -0.232620   0.231620
    14  H   -0.000931   0.137585
    15  H   -0.316601   0.455048
    16  H   -0.012964   0.143548
    17  H    0.093085   0.032447
    18  H   -0.375533   0.528522
    19  H    0.161806  -0.031782
    20  H   -0.048388   0.193286
    21  H    0.155301  -0.000974
    22  H    0.134068   0.017197
    23  H    0.197536  -0.049611
    24  H   -0.004421   0.169794
    25  H    0.148571   0.017053
    26  H   -0.092345   0.243619
    27  H    0.076656   0.051413
    28  H    0.096927   0.036568
    29  H    0.175442  -0.011637
    30  H    0.093037   0.038521
    31  H    0.129179   0.035791
    32  H    0.215455  -0.005014
    33  H    0.003297   0.071371
    34  H    0.064021   0.036908
    35  H    0.135591   0.032659
 Sum of Mulliken charges =  -1.00000   1.00000

 Dipole moment (field-independent basis, Debye):
    X=             -3.1001    Y=              3.0904    Z=              1.8560  Tot=              4.7546
 Quadrupole moment (field-independent basis, Debye-Ang):
   XX=           -194.6679   YY=           -108.5898   ZZ=           -101.0229
   XY=             22.4412   XZ=             -1.2612   YZ=             -1.1141

 Summary of Natural Population Analysis:

                                       Natural Population
                Natural  -----------------------------------------------
    Atom  No    Charge         Core      Valence    Rydberg      Total
 -----------------------------------------------------------------------
      C    1   -0.28840      0.99967     2.28289    0.00584     3.28840
      C    2   -0.19381      0.99964     2.18569    0.00847     3.19381
      C    3   -0.19176      0.99963     2.18291    0.00922     3.19176
      C    4   -0.19291      0.99963     2.18592    0.00736     3.19291
      C    5   -0.19740      0.99963     2.18863    0.00915     3.19740
      C    6   -0.19542      0.99963     2.18646    0.00933     3.19542
      C    7   -0.18926      0.99962     2.18213    0.00750     3.18926
      C    8   -0.19539      0.99960     2.18613    0.00966     3.19539
      C    9    0.02496      0.99961     1.95331    0.02212     2.97504
      N   10   -0.33793      0.99970     2.82448    0.01375     3.83793
      C   11   -0.17782      0.99966     2.17098    0.00718     3.17782
      N   12    0.11127      0.99981     2.35749    0.03143     3.38873
      O   13   -0.12114      0.99990     3.10918    0.01206     4.12114
      H   14    0.09623      0.00000     0.40290    0.00087     0.40377
      H   15    0.09948      0.00000     0.39952    0.00101     0.40052
      H   16    0.09462      0.00000     0.40443    0.00095     0.40538
      H   17    0.09458      0.00000     0.40431    0.00111     0.40542
      H   18    0.09547      0.00000     0.40333    0.00119     0.40453
      H   19    0.09580      0.00000     0.40315    0.00105     0.40420
      H   20    0.09387      0.00000     0.40523    0.00090     0.40613
      H   21    0.09712      0.00000     0.40141    0.00147     0.40288
      H   22    0.09571      0.00000     0.40322    0.00106     0.40429
      H   23    0.10205      0.00000     0.39575    0.00220     0.39795
      H   24    0.09513      0.00000     0.40377    0.00111     0.40487
      H   25    0.09964      0.00000     0.39925    0.00111     0.40036
      H   26    0.09397      0.00000     0.40487    0.00116     0.40603
      H   27    0.08946      0.00000     0.40923    0.00131     0.41054
      H   28    0.09344      0.00000     0.40544    0.00112     0.40656
      H   29    0.10011      0.00000     0.39847    0.00142     0.39989
      H   30    0.10320      0.00000     0.39331    0.00349     0.39680
      H   31    0.07475      0.00000     0.42134    0.00392     0.42525
      H   32    0.16788      0.00000     0.32821    0.00391     0.33212
      H   33    0.07232      0.00000     0.42549    0.00219     0.42768
      H   34    0.08602      0.00000     0.41299    0.00099     0.41398
      H   35    0.10419      0.00000     0.39437    0.00144     0.39581
 =======================================================================
   * Total *    0.00000     12.99573    38.81621    0.18806    52.00000

 Normal termination of Gaussian 16 at Thu Dec 10 01:07:39 2020.
