 Gaussian 16, Revision A.03,

 -----------------------------------------------------------
 # opt freq B3LYP/6-31G(d) empiricaldispersion=gd3bj scf=xqc
 -----------------------------------------------------------

 ------------------------------
 CID_86255591_JID_1101_neutraal
 ------------------------------
 Symbolic Z-matrix:
 Charge =  0 Multiplicity = 1

 SCF Done:  E(RB3LYP) =  -577.246852809     A.U. after   13 cycles
 SCF Done:  E(RB3LYP) =  -577.251108951     A.U. after   11 cycles
 SCF Done:  E(RB3LYP) =  -577.251023192     A.U. after   11 cycles
 SCF Done:  E(RB3LYP) =  -577.247441795     A.U. after   11 cycles
 SCF Done:  E(RB3LYP) =  -577.247406397     A.U. after   11 cycles
 SCF Done:  E(RB3LYP) =  -577.251337222     A.U. after    8 cycles
 SCF Done:  E(RB3LYP) =  -577.251724614     A.U. after   10 cycles
 SCF Done:  E(RB3LYP) =  -577.251567096     A.U. after   11 cycles
 SCF Done:  E(RB3LYP) =  -577.251832740     A.U. after   11 cycles
 SCF Done:  E(RB3LYP) =  -577.251885602     A.U. after    9 cycles
 SCF Done:  E(RB3LYP) =  -577.251907013     A.U. after    9 cycles
 SCF Done:  E(RB3LYP) =  -577.251912424     A.U. after    8 cycles
 SCF Done:  E(RB3LYP) =  -577.251914076     A.U. after    7 cycles
 SCF Done:  E(RB3LYP) =  -577.251915302     A.U. after    7 cycles
 SCF Done:  E(RB3LYP) =  -577.251915945     A.U. after    7 cycles
 SCF Done:  E(RB3LYP) =  -577.251916223     A.U. after    7 cycles
 Optimization completed.
    -- Stationary point found.

 1\1\GINC-NODE119\FOpt\RB3LYP\6-31G(d)\C7H16O4\VSC10255\08-Dec-2020\0\\
 # opt freq B3LYP/6-31G(d) empiricaldispersion=gd3bj scf=xqc\\CID_86255
 591_JID_1101_neutraal\\0,1\C,0.9736936091,-0.1214209268,-0.0766290354\
 C,0.4070560547,-1.5302272147,0.1666578301\C,0.8794296222,-2.0437042095
 ,1.5397751623\O,0.484527386,-1.2039326386,2.6198340933\C,-1.1270980364
 ,-1.5303964185,0.0896433087\C,-1.7491303841,-1.0370421004,-1.255520890
 2\C,-1.0414676985,-1.3700297188,-2.5724496816\O,-0.7289149736,-2.75431
 86765,-2.6870913243\O,-3.1054077314,-1.4439847146,-1.3051548471\O,-1.7

 Normal termination of Gaussian 16 at Tue Dec  8 19:16:37 2020.

 --------------------------------------------------------------------
 #N Geom=AllCheck Guess=TCheck SCRF=Check GenChk RB3LYP/6-31G(d) Freq
 --------------------------------------------------------------------

 Structure from the checkpoint file:  "JID_1101.chk"
 ------------------------------
 CID_86255591_JID_1101_neutraal
 ------------------------------
 Charge =  0 Multiplicity = 1

 SCF Done:  E(RB3LYP) =  -577.251916223     A.U. after    1 cycles

  Exact polarizability:  92.518   2.016  90.712  -0.465  -2.852  78.996
 Approx polarizability: 116.919   2.564 124.941  -2.391  -1.945 116.984

                      1                      2                      3
                      A                      A                      A
 Frequencies --     53.3308                74.1820                98.8229
 Red. masses --      4.5899                 3.1231                 3.8583
 Frc consts  --      0.0077                 0.0101                 0.0222
 IR Inten    --      1.5914                 1.1077                 0.4670

                      4                      5                      6
                      A                      A                      A
 Frequencies --    118.6016               132.0568               175.4161
 Red. masses --      3.5034                 2.0721                 2.1160
 Frc consts  --      0.0290                 0.0213                 0.0384
 IR Inten    --      5.8613                 1.1491                 6.7905

                      7                      8                      9
                      A                      A                      A
 Frequencies --    195.4797               214.8543               220.4215
 Red. masses --      3.1709                 1.1210                 1.1680
 Frc consts  --      0.0714                 0.0305                 0.0334
 IR Inten    --      2.8005                46.9391                66.6195

                     10                     11                     12
                      A                      A                      A
 Frequencies --    242.7609               260.3905               272.7020
 Red. masses --      2.3207                 3.3280                 2.6886
 Frc consts  --      0.0806                 0.1329                 0.1178
 IR Inten    --      6.0449                 5.6997                12.6186

                     13                     14                     15
                      A                      A                      A
 Frequencies --    330.6760               340.2605               358.4879
 Red. masses --      2.8016                 2.1517                 4.0614
 Frc consts  --      0.1805                 0.1468                 0.3075
 IR Inten    --     15.5654                 4.9442                17.1899

                     16                     17                     18
                      A                      A                      A
 Frequencies --    367.1042               443.4251               496.5806
 Red. masses --      1.3408                 2.9722                 2.3381
 Frc consts  --      0.1065                 0.3443                 0.3397
 IR Inten    --    123.7020                 4.4487                34.4129

                     19                     20                     21
                      A                      A                      A
 Frequencies --    514.0455               561.9773               612.9906
 Red. masses --      1.2270                 3.9680                 3.0696
 Frc consts  --      0.1910                 0.7383                 0.6796
 IR Inten    --     32.5764                20.2077                 6.4780

                     22                     23                     24
                      A                      A                      A
 Frequencies --    732.3892               826.7666               860.1030
 Red. masses --      3.6917                 3.2109                 2.5879
 Frc consts  --      1.1667                 1.2931                 1.1280
 IR Inten    --     11.1613                 7.5565                 9.7831

                     25                     26                     27
                      A                      A                      A
 Frequencies --    884.0594               942.6022               968.5069
 Red. masses --      2.6813                 1.7121                 1.8634
 Frc consts  --      1.2347                 0.8963                 1.0298
 IR Inten    --      2.7364                21.2071                35.8909

                     28                     29                     30
                      A                      A                      A
 Frequencies --    977.4228              1019.8902              1041.1302
 Red. masses --      2.0342                 2.1535                 3.3594
 Frc consts  --      1.1450                 1.3198                 2.1455
 IR Inten    --     14.8498                53.1233                10.5376

                     31                     32                     33
                      A                      A                      A
 Frequencies --   1094.8509              1103.1747              1132.0165
 Red. masses --      2.0878                 3.5423                 2.9677
 Frc consts  --      1.4745                 2.5400                 2.2407
 IR Inten    --     11.0538                50.9947               173.8220

                     34                     35                     36
                      A                      A                      A
 Frequencies --   1135.9137              1151.7735              1184.2457
 Red. masses --      2.7673                 2.9831                 2.0759
 Frc consts  --      2.1038                 2.3316                 1.7153
 IR Inten    --     26.0262                22.7653                14.3635

                     37                     38                     39
                      A                      A                      A
 Frequencies --   1197.5918              1230.7478              1236.9836
 Red. masses --      1.2905                 1.2317                 1.3442
 Frc consts  --      1.0905                 1.0992                 1.2119
 IR Inten    --      2.3911                59.5532                10.6780

                     40                     41                     42
                      A                      A                      A
 Frequencies --   1253.1395              1287.2191              1301.3452
 Red. masses --      1.2838                 1.1518                 1.3353
 Frc consts  --      1.1878                 1.1244                 1.3324
 IR Inten    --     32.9007                51.7151                 9.2659

                     43                     44                     45
                      A                      A                      A
 Frequencies --   1322.9537              1366.7998              1386.5495
 Red. masses --      1.2664                 1.4516                 1.3325
 Frc consts  --      1.3059                 1.5978                 1.5094
 IR Inten    --      1.5885                 3.6949                 5.1615

                     46                     47                     48
                      A                      A                      A
 Frequencies --   1412.6773              1427.2761              1433.6169
 Red. masses --      1.2686                 1.2705                 1.1933
 Frc consts  --      1.4916                 1.5249                 1.4450
 IR Inten    --      1.6404                 4.3583                32.4570

                     49                     50                     51
                      A                      A                      A
 Frequencies --   1440.8857              1451.7411              1463.1258
 Red. masses --      1.2093                 1.2726                 1.2837
 Frc consts  --      1.4793                 1.5803                 1.6192
 IR Inten    --     21.8836                 6.6943                68.1907

                     52                     53                     54
                      A                      A                      A
 Frequencies --   1475.8706              1508.9640              1518.4971
 Red. masses --      1.4295                 1.1372                 1.0541
 Frc consts  --      1.8345                 1.5257                 1.4321
 IR Inten    --     10.7443                11.3714                 5.5949

                     55                     56                     57
                      A                      A                      A
 Frequencies --   1523.3829              1530.6906              1537.9468
 Red. masses --      1.0855                 1.0709                 1.0572
 Frc consts  --      1.4843                 1.4784                 1.4733
 IR Inten    --      2.6217                 3.1707                 7.7874

                     58                     59                     60
                      A                      A                      A
 Frequencies --   1544.4848              1548.5020              2993.1603
 Red. masses --      1.0569                 1.0622                 1.0778
 Frc consts  --      1.4854                 1.5007                 5.6894
 IR Inten    --     12.7699                 5.0926                12.2007

                     61                     62                     63
                      A                      A                      A
 Frequencies --   2997.0651              3013.8909              3046.1922
 Red. masses --      1.0738                 1.0647                 1.0415
 Frc consts  --      5.6828                 5.6981                 5.6943
 IR Inten    --     68.1747                91.2757                26.6042

                     64                     65                     66
                      A                      A                      A
 Frequencies --   3049.4772              3050.7700              3063.8188
 Red. masses --      1.1026                 1.0427                 1.0757
 Frc consts  --      6.0410                 5.7178                 5.9495
 IR Inten    --     64.7544                34.9909                15.0548

                     67                     68                     69
                      A                      A                      A
 Frequencies --   3084.8287              3104.4785              3125.0494
 Red. masses --      1.0864                 1.1009                 1.0987
 Frc consts  --      6.0910                 6.2515                 6.3221
 IR Inten    --     24.2971                38.4659                51.4966

                     70                     71                     72
                      A                      A                      A
 Frequencies --   3145.4227              3147.1363              3161.9234
 Red. masses --      1.0949                 1.0913                 1.1061
 Frc consts  --      6.3822                 6.3682                 6.5153
 IR Inten    --     28.1899                16.6689                 9.2280

                     73                     74                     75
                      A                      A                      A
 Frequencies --   3649.1374              3756.1729              3760.0047
 Red. masses --      1.0649                 1.0660                 1.0666
 Frc consts  --      8.3545                 8.8614                 8.8842
 IR Inten    --     90.0569                11.0256                18.8644

 - Thermochemistry -
 -------------------
 Temperature   298.150 Kelvin.  Pressure   1.00000 Atm.
 Atom     1 has atomic number  6 and mass  12.00000

 Molecular mass:   164.10486 amu.
 Principal axes and moments of inertia in atomic units:
                           1         2         3
     Eigenvalues --  1226.038342356.898472653.78497
           X            0.99988   0.01504  -0.00219
           Y           -0.01514   0.99801  -0.06127
           Z            0.00126   0.06130   0.99812
 This molecule is an asymmetric top.
 Rotational symmetry number  1.
 Warning -- assumption of classical behavior for rotation
           may cause significant error
 Rotational temperatures (Kelvin)      0.07065     0.03675     0.03264
 Rotational constants (GHZ):           1.47201     0.76573     0.68006
 Zero-point vibrational energy     626178.9 (Joules/Mol)
                                  149.66034 (Kcal/Mol)
 Warning -- explicit consideration of  21 degrees of freedom as
           vibrations may cause significant error
 Vibrational temperatures:     76.73   106.73   142.18   170.64   190.00
          (Kelvin)            252.38   281.25   309.13   317.14   349.28
                              374.64   392.36   475.77   489.56   515.78
                              528.18   637.99   714.47   739.60   808.56
                              881.96  1053.74  1189.53  1237.50  1271.96
                             1356.19  1393.47  1406.29  1467.39  1497.95
                             1575.25  1587.22  1628.72  1634.33  1657.15
                             1703.87  1723.07  1770.77  1779.74  1802.99
                             1852.02  1872.35  1903.44  1966.52  1994.94
                             2032.53  2053.53  2062.65  2073.11  2088.73
                             2105.11  2123.45  2171.06  2184.78  2191.81
                             2202.32  2212.76  2222.17  2227.95  4306.49
                             4312.11  4336.32  4382.79  4387.52  4389.38
                             4408.15  4438.38  4466.65  4496.25  4525.56
                             4528.03  4549.30  5250.29  5404.30  5409.81

 Zero-point correction=                           0.238499 (Hartree/Particle)
 Thermal correction to Energy=                    0.252011
 Thermal correction to Enthalpy=                  0.252955
 Thermal correction to Gibbs Free Energy=         0.199187
 Sum of electronic and zero-point Energies=           -577.013417
 Sum of electronic and thermal Energies=              -576.999906
 Sum of electronic and thermal Enthalpies=            -576.998961
 Sum of electronic and thermal Free Energies=         -577.052729

                     E (Thermal)             CV                S
                      KCal/Mol        Cal/Mol-Kelvin    Cal/Mol-Kelvin
 Total                  158.139             49.030            113.164
 Electronic               0.000              0.000              0.000
 Translational            0.889              2.981             41.195
 Rotational               0.889              2.981             30.418
 Vibrational            156.362             43.068             41.552
 Vibration     1          0.596              1.976              4.690
 Vibration     2          0.599              1.966              4.039
 Vibration     3          0.604              1.950              3.477
 Vibration     4          0.609              1.934              3.123
 Vibration     5          0.612              1.921              2.916
 Vibration     6          0.627              1.873              2.377
 Vibration     7          0.636              1.846              2.175
 Vibration     8          0.645              1.818              2.002
 Vibration     9          0.647              1.810              1.956
 Vibration    10          0.659              1.775              1.783
 Vibration    11          0.668              1.745              1.659
 Vibration    12          0.676              1.724              1.579
 Vibration    13          0.713              1.614              1.257
 Vibration    14          0.720              1.595              1.211
 Vibration    15          0.733              1.558              1.129
 Vibration    16          0.740              1.540              1.092
 Vibration    17          0.803              1.375              0.816
 Vibration    18          0.852              1.258              0.667
 Vibration    19          0.869              1.219              0.624
 Vibration    20          0.918              1.114              0.520
 Vibration    21          0.972              1.004              0.428

                           ! Non-Optimized Parameters !

 1\1\GINC-NODE119\Freq\RB3LYP\6-31G(d)\C7H16O4\VSC10255\08-Dec-2020\0\\
 #N Geom=AllCheck Guess=TCheck SCRF=Check GenChk RB3LYP/6-31G(d) Freq\\
 CID_86255591_JID_1101_neutraal\\0,1\C,0.9736936091,-0.1214209268,-0.07
 66290354\C,0.4070560547,-1.5302272147,0.1666578301\C,0.8794296222,-2.0
 437042095,1.5397751623\O,0.484527386,-1.2039326386,2.6198340933\C,-1.1
 270980364,-1.5303964185,0.0896433087\C,-1.7491303841,-1.0370421004,-1.
 2555208902\C,-1.0414676985,-1.3700297188,-2.5724496816\O,-0.7289149736
 ,-2.7543186765,-2.6870913243\O,-3.1054077314,-1.4439847146,-1.30515484

 Normal termination of Gaussian 16 at Tue Dec  8 19:23:07 2020.

 ----------------------------------------------------------------------
 # B3LYP/6-311++G(d,p) empiricaldispersion=gd3bj scf=xqc pop=npa geom=c
 heck
 ----------------------------------------------------------------------

 --------------------------------------
 CID_86255591_JID_1101_Energie_neutraal
 --------------------------------------
 Structure from the checkpoint file:  "JID_1101.chk"
 Charge =  0 Multiplicity = 1

 SCF Done:  E(RB3LYP) =  -577.454389904     A.U. after   13 cycles
 Normal termination of Gaussian 16 at Tue Dec  8 19:25:46 2020.

 ----------------------------------------------------------------------
 # B3LYP/6-311++G(d,p) empiricaldispersion=gd3bj scf=xqc pop=npa geom=c
 heck
 ----------------------------------------------------------------------

 ------------------------------------
 CID_86255591_JID_1101_Energie_kation
 ------------------------------------
 Structure from the checkpoint file:  "JID_1101.chk"
 Charge =  1 Multiplicity = 2

 SCF Done:  E(UB3LYP) =  -577.118731967     A.U. after   24 cycles
 Normal termination of Gaussian 16 at Tue Dec  8 19:32:45 2020.
 Gaussian 16:  ES64L-G16RevA.03 25-Dec-2016

 -----------------------------------
 CID_86255591_JID_1101_Energie_anion
 -----------------------------------
 Structure from the checkpoint file:  "JID_1101.chk"
 Charge = -1 Multiplicity = 2

                         Standard orientation:
 ---------------------------------------------------------------------
 Center     Atomic      Atomic             Coordinates (Angstroms)
 Number     Number       Type             X           Y           Z
 ---------------------------------------------------------------------
      1          6           0       -1.381508   -1.951461   -0.055906
      2          6           0       -1.037407   -0.505561   -0.450838
      3          6           0       -2.337161    0.301593   -0.628004
      4          8           0       -3.143778    0.332232    0.545079
      5          6           0       -0.131944    0.154395    0.599949
      6          6           0        1.230396   -0.556768    0.879353
      7          6           0        1.975798   -1.225226   -0.279745
      8          8           0        2.126403   -0.360195   -1.400516
      9          8           0        2.082842    0.346343    1.561468
     10          8           0        0.055304    1.564697    0.410005
     11          6           0        0.560852    2.049761   -0.833778
     12          1           0       -1.832407   -1.988101    0.943155
     13          1           0       -0.506742   -2.605048   -0.038912
     14          1           0       -2.095410   -2.382872   -0.768444
     15          1           0       -0.518634   -0.521894   -1.417491
     16          1           0       -2.111474    1.346194   -0.847145
     17          1           0       -2.899624   -0.109927   -1.481735
     18          1           0       -3.518383   -0.552744    0.667335
     19          1           0       -0.679361    0.138768    1.547923
     20          1           0        1.006356   -1.388400    1.566068
     21          1           0        2.955375   -1.521105    0.121033
     22          1           0        1.444359   -2.142207   -0.575728
     23          1           0        2.782566   -0.754186   -1.993727
     24          1           0        1.688490    1.225894    1.413483
     25          1           0        1.590703    1.731515   -1.005929
     26          1           0       -0.048507    1.720106   -1.683309
     27          1           0        0.502369    3.138995   -0.761043
 ---------------------------------------------------------------------

 SCF Done:  E(UB3LYP) =  -577.444943398     A.U. after   27 cycles

 The electronic state is 2-A.
 Alpha  occ. eigenvalues --  -19.03145 -19.01952 -19.01442 -19.01055 -10.12154
 Alpha  occ. eigenvalues --  -10.11781 -10.11041 -10.10624 -10.10479 -10.07374
 Alpha  occ. eigenvalues --  -10.05872  -0.94657  -0.92078  -0.91722  -0.90540
 Alpha  occ. eigenvalues --   -0.70523  -0.64199  -0.61307  -0.58161  -0.54660
 Alpha  occ. eigenvalues --   -0.49789  -0.46062  -0.42781  -0.41115  -0.40795
 Alpha  occ. eigenvalues --   -0.39013  -0.36635  -0.35181  -0.33946  -0.33104
 Alpha  occ. eigenvalues --   -0.32345  -0.31934  -0.31023  -0.28720  -0.27810
 Alpha  occ. eigenvalues --   -0.27292  -0.25038  -0.23716  -0.23252  -0.22629
 Alpha  occ. eigenvalues --   -0.19973  -0.18130  -0.17579  -0.16816  -0.16096
 Alpha  occ. eigenvalues --    0.04382
 Alpha virt. eigenvalues --    0.06635   0.07945   0.08530   0.09374   0.10120
 Alpha virt. eigenvalues --    0.10718   0.11112   0.11400   0.12724   0.13161
 Alpha virt. eigenvalues --    0.13343   0.14082   0.14563   0.15452   0.16420

  Beta  occ. eigenvalues --  -19.03144 -19.01921 -19.01393 -19.01049 -10.12148
  Beta  occ. eigenvalues --  -10.11778 -10.11023 -10.10615 -10.10442 -10.07366
  Beta  occ. eigenvalues --  -10.05819  -0.94647  -0.92011  -0.91645  -0.90501
  Beta  occ. eigenvalues --   -0.70489  -0.64143  -0.61262  -0.58076  -0.54608
  Beta  occ. eigenvalues --   -0.49726  -0.46018  -0.42696  -0.41084  -0.40721
  Beta  occ. eigenvalues --   -0.38959  -0.36591  -0.35151  -0.33911  -0.33075
  Beta  occ. eigenvalues --   -0.32316  -0.31908  -0.30989  -0.28668  -0.27776
  Beta  occ. eigenvalues --   -0.27248  -0.24983  -0.23679  -0.23217  -0.22601
  Beta  occ. eigenvalues --   -0.19955  -0.18102  -0.17535  -0.16790  -0.16062
  Beta virt. eigenvalues --    0.07103   0.07930   0.08496   0.08969   0.10232
  Beta virt. eigenvalues --    0.10461   0.11068   0.11364   0.11813   0.13308
  Beta virt. eigenvalues --    0.13426   0.13782   0.14434   0.14860   0.15725

 Mulliken charges and spin densities:
               1          2
     1  C    1.644134  -2.322968
     2  C   -2.384107   2.471430
     3  C    0.137121  -0.578253
     4  O   -0.191730  -0.030315
     5  C    1.880936  -1.829336
     6  C   -1.750920   1.124001
     7  C    1.965199  -2.127071
     8  O   -0.397573   0.099435
     9  O   -0.175433   0.000825
    10  O   -0.219277   0.021211
    11  C   -0.210818  -0.135229
    12  H   -0.121073   0.272392
    13  H   -0.044551   0.145805
    14  H   -0.730188   0.898211
    15  H    0.220681  -0.020278
    16  H    0.112611   0.065582
    17  H   -0.287361   0.441876
    18  H   -0.028649   0.279408
    19  H    0.210544   0.043363
    20  H   -0.057953   0.249848
    21  H   -0.215705   0.381500
    22  H   -0.546313   0.713717
    23  H   -0.352694   0.653942
    24  H    0.265096  -0.017783
    25  H    0.193548   0.008923
    26  H    0.026874   0.101356
    27  H    0.057603   0.088409
 Sum of Mulliken charges =  -1.00000   1.00000

 Dipole moment (field-independent basis, Debye):
    X=             -0.3038    Y=              5.1300    Z=              2.1083  Tot=              5.5547
 Quadrupole moment (field-independent basis, Debye-Ang):
   XX=           -130.9974   YY=           -106.7809   ZZ=           -103.5038
   XY=              2.0795   XZ=              5.9542   YZ=             -9.1832

 Summary of Natural Population Analysis:

                                       Natural Population
                Natural  -----------------------------------------------
    Atom  No    Charge         Core      Valence    Rydberg      Total
 -----------------------------------------------------------------------
      C    1   -0.29088      0.99964     2.28367    0.00756     3.29088
      C    2   -0.14574      0.99957     2.13472    0.01145     3.14574
      C    3   -0.00598      0.99957     1.99234    0.01407     3.00598
      O    4   -0.37130      0.99990     3.36454    0.00686     4.37130
      C    5    0.06147      0.99949     1.92299    0.01605     2.93853
      C    6    0.04471      0.99955     1.94085    0.01489     2.95529
      C    7   -0.01953      0.99956     2.00617    0.01380     3.01953
      O    8   -0.38010      0.99989     3.37153    0.00868     4.38010
      O    9   -0.37640      0.99989     3.36986    0.00665     4.37640
      O   10   -0.31217      0.99989     3.30324    0.00904     4.31217
      C   11   -0.10571      0.99959     2.09777    0.00835     3.10571
      H   12    0.09651      0.00000     0.40192    0.00157     0.40349
      H   13    0.10487      0.00000     0.39342    0.00171     0.39513
      H   14    0.10441      0.00000     0.39353    0.00207     0.39559
      H   15    0.10935      0.00000     0.38781    0.00284     0.39065
      H   16    0.08970      0.00000     0.40885    0.00145     0.41030
      H   17    0.07811      0.00000     0.42065    0.00124     0.42189
      H   18    0.22961      0.00000     0.26665    0.00375     0.27039
      H   19    0.09944      0.00000     0.39890    0.00166     0.40056
      H   20    0.08693      0.00000     0.41153    0.00154     0.41307
      H   21    0.08496      0.00000     0.41339    0.00165     0.41504
      H   22    0.08091      0.00000     0.41662    0.00247     0.41909
      H   23    0.23866      0.00000     0.24787    0.01347     0.26134
      H   24    0.23525      0.00000     0.26162    0.00313     0.26475
      H   25    0.09926      0.00000     0.39921    0.00153     0.40074
      H   26    0.08071      0.00000     0.41812    0.00117     0.41929
      H   27    0.08297      0.00000     0.41613    0.00090     0.41703
 =======================================================================
   * Total *   -0.00000     10.99655    33.84390    0.15954    45.00000

 Normal termination of Gaussian 16 at Tue Dec  8 19:40:31 2020.
