 Gaussian 16, Revision A.03,

 -----------------------------------------------------------
 # opt freq B3LYP/6-31G(d) empiricaldispersion=gd3bj scf=xqc
 -----------------------------------------------------------

 -------------------------------
 CID_108057001_JID_7147_neutraal
 -------------------------------
 Symbolic Z-matrix:
 Charge =  0 Multiplicity = 1

 SCF Done:  E(RB3LYP) =  -785.824612483     A.U. after   14 cycles
 SCF Done:  E(RB3LYP) =  -785.827776048     A.U. after   12 cycles
 SCF Done:  E(RB3LYP) =  -785.826112688     A.U. after   12 cycles
 SCF Done:  E(RB3LYP) =  -785.828306695     A.U. after   12 cycles
 SCF Done:  E(RB3LYP) =  -785.829363542     A.U. after   12 cycles
 SCF Done:  E(RB3LYP) =  -785.830403438     A.U. after   11 cycles
 SCF Done:  E(RB3LYP) =  -785.830838183     A.U. after   12 cycles
 SCF Done:  E(RB3LYP) =  -785.831023573     A.U. after   12 cycles
 SCF Done:  E(RB3LYP) =  -785.831127108     A.U. after   11 cycles
 SCF Done:  E(RB3LYP) =  -785.831175438     A.U. after   10 cycles
 SCF Done:  E(RB3LYP) =  -785.831204022     A.U. after    7 cycles
 SCF Done:  E(RB3LYP) =  -785.831204079     A.U. after    7 cycles
 SCF Done:  E(RB3LYP) =  -785.831204135     A.U. after    7 cycles
 SCF Done:  E(RB3LYP) =  -785.831204264     A.U. after    7 cycles
 SCF Done:  E(RB3LYP) =  -785.831204340     A.U. after    7 cycles
 Optimization completed.
    -- Stationary point found.
 Normal termination of Gaussian 16 at Sun Dec 13 12:43:40 2020.

 --------------------------------------------------------------------
 #N Geom=AllCheck Guess=TCheck SCRF=Check GenChk RB3LYP/6-31G(d) Freq
 --------------------------------------------------------------------

 Structure from the checkpoint file:  "JID_7147.chk"
 -------------------------------
 CID_108057001_JID_7147_neutraal
 -------------------------------
 Charge =  0 Multiplicity = 1

 SCF Done:  E(RB3LYP) =  -785.831204340     A.U. after    1 cycles

  Exact polarizability: 178.197  11.459 129.705  -5.168   5.528 147.977
 Approx polarizability: 224.877  17.834 177.680  -7.654  11.471 228.493

                      1                      2                      3
                      A                      A                      A
 Frequencies --     21.4272                25.4295                32.4121
 Red. masses --      3.7353                 3.0009                 1.9404
 Frc consts  --      0.0010                 0.0011                 0.0012
 IR Inten    --      0.3656                 0.4292                 0.1378

                      4                      5                      6
                      A                      A                      A
 Frequencies --     46.0290                49.0427                62.3890
 Red. masses --      3.4861                 1.7866                 3.2948
 Frc consts  --      0.0044                 0.0025                 0.0076
 IR Inten    --      0.4202                 0.4989                 2.6775

                      7                      8                      9
                      A                      A                      A
 Frequencies --     76.9447                88.2452               106.7601
 Red. masses --      3.3404                 2.4584                 2.4848
 Frc consts  --      0.0117                 0.0113                 0.0167
 IR Inten    --      2.5905                 1.1784                 4.8983

                     10                     11                     12
                      A                      A                      A
 Frequencies --    117.2213               149.5771               179.5685
 Red. masses --      3.5734                 2.4045                 3.1509
 Frc consts  --      0.0289                 0.0317                 0.0599
 IR Inten    --      3.7250                 1.4730                 1.4834

                     13                     14                     15
                      A                      A                      A
 Frequencies --    198.7765               229.1624               236.1099
 Red. masses --      2.8232                 1.8048                 1.3587
 Frc consts  --      0.0657                 0.0558                 0.0446
 IR Inten    --      2.9132                 0.5532                 3.6467

                     16                     17                     18
                      A                      A                      A
 Frequencies --    249.6350               270.6102               281.2387
 Red. masses --      3.2626                 3.0378                 2.1644
 Frc consts  --      0.1198                 0.1311                 0.1009
 IR Inten    --      1.1857                 0.9148                 5.0223

                     19                     20                     21
                      A                      A                      A
 Frequencies --    300.7734               339.4072               370.3462
 Red. masses --      1.8263                 3.4272                 2.7205
 Frc consts  --      0.0973                 0.2326                 0.2198
 IR Inten    --      2.0078                 0.8857                 1.9632

                     22                     23                     24
                      A                      A                      A
 Frequencies --    377.4473               404.3225               431.2638
 Red. masses --      3.3452                 2.2131                 2.5786
 Frc consts  --      0.2808                 0.2132                 0.2826
 IR Inten    --      3.4178                 0.5345                 2.3299

                     25                     26                     27
                      A                      A                      A
 Frequencies --    512.2581               540.7124               618.1701
 Red. masses --      3.0412                 2.2456                 4.4732
 Frc consts  --      0.4702                 0.3868                 1.0071
 IR Inten    --      3.3406                10.4298                 4.2174

                     28                     29                     30
                      A                      A                      A
 Frequencies --    625.7336               680.9792               702.3804
 Red. masses --      3.5969                 3.1206                 1.7560
 Frc consts  --      0.8298                 0.8526                 0.5104
 IR Inten    --     20.0035                 3.3868                92.5801

                     31                     32                     33
                      A                      A                      A
 Frequencies --    738.2560               753.2469               784.5841
 Red. masses --      2.2996                 1.6135                 1.1991
 Frc consts  --      0.7384                 0.5394                 0.4349
 IR Inten    --     10.7717                38.6640                14.2685

                     34                     35                     36
                      A                      A                      A
 Frequencies --    797.6089               825.8180               852.5328
 Red. masses --      2.8404                 1.3857                 3.1140
 Frc consts  --      1.0646                 0.5568                 1.3335
 IR Inten    --     15.3551                 0.8377                 2.8624

                     37                     38                     39
                      A                      A                      A
 Frequencies --    860.6012               896.8736               914.4520
 Red. masses --      2.3590                 2.6505                 2.0132
 Frc consts  --      1.0294                 1.2561                 0.9919
 IR Inten    --     18.0018                 3.6509                14.0092

                     40                     41                     42
                      A                      A                      A
 Frequencies --    936.0678               994.4190              1021.9286
 Red. masses --      1.4194                 2.3920                 3.0787
 Frc consts  --      0.7328                 1.3936                 1.8944
 IR Inten    --      9.6229                 9.4855                11.5839

                     43                     44                     45
                      A                      A                      A
 Frequencies --   1028.5973              1031.9899              1050.3679
 Red. masses --      1.7814                 3.5167                 2.3291
 Frc consts  --      1.1105                 2.2067                 1.5140
 IR Inten    --     11.5038                 8.5325                12.0026

                     46                     47                     48
                      A                      A                      A
 Frequencies --   1056.9300              1075.6695              1090.4346
 Red. masses --      2.4442                 1.7326                 1.7119
 Frc consts  --      1.6087                 1.1811                 1.1993
 IR Inten    --     40.8846                 7.3168                14.4934

                     49                     50                     51
                      A                      A                      A
 Frequencies --   1105.3993              1133.8022              1157.1574
 Red. masses --      1.8243                 1.9403                 2.9167
 Frc consts  --      1.3133                 1.4696                 2.3010
 IR Inten    --      6.3472                 5.7246               100.0010

                     52                     53                     54
                      A                      A                      A
 Frequencies --   1161.0763              1162.0408              1174.8469
 Red. masses --      2.0697                 1.4038                 2.1163
 Frc consts  --      1.6439                 1.1168                 1.7211
 IR Inten    --     67.3211                10.7888                13.5475

                     55                     56                     57
                      A                      A                      A
 Frequencies --   1181.0013              1194.4421              1197.5200
 Red. masses --      4.0163                 1.7202                 1.9322
 Frc consts  --      3.3005                 1.4460                 1.6325
 IR Inten    --     83.1549                18.9848                21.8761

                     58                     59                     60
                      A                      A                      A
 Frequencies --   1221.7208              1241.3683              1274.1276
 Red. masses --      1.6908                 1.7290                 1.2464
 Frc consts  --      1.4869                 1.5698                 1.1922
 IR Inten    --      8.3696                33.9196                 5.3553

                     61                     62                     63
                      A                      A                      A
 Frequencies --   1286.1496              1299.5152              1317.5566
 Red. masses --      1.3071                 1.3434                 1.2190
 Frc consts  --      1.2739                 1.3367                 1.2468
 IR Inten    --      8.2683                 5.0184                 2.1236

                     64                     65                     66
                      A                      A                      A
 Frequencies --   1329.5378              1343.5093              1358.9613
 Red. masses --      1.9147                 1.7373                 1.2693
 Frc consts  --      1.9941                 1.8476                 1.3811
 IR Inten    --     25.0625                17.1730                 6.3115

                     67                     68                     69
                      A                      A                      A
 Frequencies --   1368.4385              1390.6431              1398.8235
 Red. masses --      1.3089                 1.3790                 1.2501
 Frc consts  --      1.4441                 1.5712                 1.4412
 IR Inten    --     16.8381                 4.4914                29.5484

                     70                     71                     72
                      A                      A                      A
 Frequencies --   1412.3383              1425.5738              1435.8029
 Red. masses --      3.9673                 1.4146                 1.3034
 Frc consts  --      4.6625                 1.6938                 1.5832
 IR Inten    --      8.1507                 1.5176                 4.4074

                     73                     74                     75
                      A                      A                      A
 Frequencies --   1441.7899              1450.9867              1467.6829
 Red. masses --      1.3686                 1.3091                 2.7674
 Frc consts  --      1.6762                 1.6238                 3.5122
 IR Inten    --     10.7018                 3.4051                30.1057

                     76                     77                     78
                      A                      A                      A
 Frequencies --   1480.3228              1500.3128              1504.5736
 Red. masses --      1.4204                 1.1562                 1.0473
 Frc consts  --      1.8339                 1.5333                 1.3968
 IR Inten    --     10.5126                 6.2522                 7.4060

                     79                     80                     81
                      A                      A                      A
 Frequencies --   1508.1026              1509.2535              1512.6515
 Red. masses --      1.2015                 1.1024                 1.2670
 Frc consts  --      1.6100                 1.4795                 1.7081
 IR Inten    --     15.5787                 2.6527                26.6614

                     82                     83                     84
                      A                      A                      A
 Frequencies --   1514.4130              1524.3185              1527.3257
 Red. masses --      1.0481                 1.2989                 1.0792
 Frc consts  --      1.4163                 1.7781                 1.4833
 IR Inten    --      4.3894                 3.2873                 8.9988

                     85                     86                     87
                      A                      A                      A
 Frequencies --   1529.9810              1534.8731              1546.7991
 Red. masses --      1.1414                 1.2315                 1.0936
 Frc consts  --      1.5742                 1.7094                 1.5416
 IR Inten    --      1.3846                34.5012                33.8947

                     88                     89                     90
                      A                      A                      A
 Frequencies --   1549.0597              1553.6014              1557.7591
 Red. masses --      1.0900                 1.3679                 1.0965
 Frc consts  --      1.5411                 1.9453                 1.5677
 IR Inten    --      0.3294                 0.2656                 1.1484

                     91                     92                     93
                      A                      A                      A
 Frequencies --   1578.1298              2967.0596              2979.7148
 Red. masses --      5.4624                 1.0606                 1.0681
 Frc consts  --      8.0154                 5.5013                 5.5874
 IR Inten    --     33.9583                46.3799                27.9669

                     94                     95                     96
                      A                      A                      A
 Frequencies --   2991.9488              2992.5863              3017.9192
 Red. masses --      1.0763                 1.0456                 1.0968
 Frc consts  --      5.6765                 5.5170                 5.8856
 IR Inten    --     53.4800                75.3004                51.2320

                     97                     98                     99
                      A                      A                      A
 Frequencies --   3033.6224              3036.7178              3040.4076
 Red. masses --      1.0798                 1.1047                 1.0369
 Frc consts  --      5.8550                 6.0021                 5.6475
 IR Inten    --     13.7700                58.0436                21.4897

                    100                    101                    102
                      A                      A                      A
 Frequencies --   3047.3515              3062.4966              3066.5540
 Red. masses --      1.0747                 1.0591                 1.0339
 Frc consts  --      5.8803                 5.8526                 5.7282
 IR Inten    --     69.3440                81.1695                50.0527

                    103                    104                    105
                      A                      A                      A
 Frequencies --   3069.5731              3080.4455              3107.7393
 Red. masses --      1.0611                 1.1007                 1.1016
 Frc consts  --      5.8906                 6.1536                 6.2687
 IR Inten    --     13.0696                 9.8175                64.5934

                    106                    107                    108
                      A                      A                      A
 Frequencies --   3112.0620              3112.7385              3116.6850
 Red. masses --      1.1023                 1.1047                 1.1050
 Frc consts  --      6.2898                 6.3062                 6.3244
 IR Inten    --     49.2664                17.1764                42.3483

                    109                    110                    111
                      A                      A                      A
 Frequencies --   3133.5611              3139.0137              3162.7942
 Red. masses --      1.1042                 1.0969                 1.1046
 Frc consts  --      6.3879                 6.3679                 6.5103
 IR Inten    --     17.0673                27.9003                11.1276

                    112                    113                    114
                      A                      A                      A
 Frequencies --   3263.9041              3281.9836              3551.4678
 Red. masses --      1.0905                 1.1048                 1.0737
 Frc consts  --      6.8448                 7.0115                 7.9792
 IR Inten    --      2.2045                 3.5716                 4.0608

 - Thermochemistry -
 -------------------
 Temperature   298.150 Kelvin.  Pressure   1.00000 Atm.
 Atom     1 has atomic number  6 and mass  12.00000

 Molecular mass:   241.17903 amu.
 Principal axes and moments of inertia in atomic units:
                           1         2         3
     Eigenvalues --  2978.632106563.353357751.22622
           X            0.99998   0.00392  -0.00455
           Y           -0.00386   0.99991   0.01293
           Z            0.00460  -0.01292   0.99991
 This molecule is an asymmetric top.
 Rotational symmetry number  1.
 Warning -- assumption of classical behavior for rotation
           may cause significant error
 Rotational temperatures (Kelvin)      0.02908     0.01320     0.01117
 Rotational constants (GHZ):           0.60590     0.27497     0.23283
 Zero-point vibrational energy     931689.9 (Joules/Mol)
                                  222.67923 (Kcal/Mol)
 Warning -- explicit consideration of  27 degrees of freedom as
           vibrations may cause significant error
 Vibrational temperatures:     30.83    36.59    46.63    66.23    70.56
          (Kelvin)             89.76   110.71   126.97   153.60   168.66
                              215.21   258.36   286.00   329.71   339.71
                              359.17   389.35   404.64   432.75   488.33
                              532.85   543.06   581.73   620.49   737.03
                              777.96   889.41   900.29   979.78  1010.57
                             1062.19  1083.75  1128.84  1147.58  1188.17
                             1226.60  1238.21  1290.40  1315.69  1346.79
                             1430.75  1470.33  1479.92  1484.80  1511.25
                             1520.69  1547.65  1568.89  1590.42  1631.29
                             1664.89  1670.53  1671.92  1690.34  1699.20
                             1718.54  1722.96  1757.78  1786.05  1833.19
                             1850.48  1869.71  1895.67  1912.91  1933.01
                             1955.24  1968.88  2000.83  2012.60  2032.04
                             2051.08  2065.80  2074.41  2087.65  2111.67
                             2129.85  2158.62  2164.75  2169.82  2171.48
                             2176.37  2178.90  2193.15  2197.48  2201.30
                             2208.34  2225.50  2228.75  2235.29  2241.27
                             2270.58  4268.94  4287.14  4304.75  4305.66
                             4342.11  4364.71  4369.16  4374.47  4384.46
                             4406.25  4412.09  4416.43  4432.07  4471.34
                             4477.56  4478.54  4484.21  4508.50  4516.34
                             4550.56  4696.03  4722.04  5109.77

 Zero-point correction=                           0.354862 (Hartree/Particle)
 Thermal correction to Energy=                    0.374368
 Thermal correction to Enthalpy=                  0.375312
 Thermal correction to Gibbs Free Energy=         0.303645
 Sum of electronic and zero-point Energies=           -785.476342
 Sum of electronic and thermal Energies=              -785.456836
 Sum of electronic and thermal Enthalpies=            -785.455892
 Sum of electronic and thermal Free Energies=         -785.527559

                     E (Thermal)             CV                S
                      KCal/Mol        Cal/Mol-Kelvin    Cal/Mol-Kelvin
 Total                  234.920             69.343            150.837
 Electronic               0.000              0.000              0.000
 Translational            0.889              2.981             42.342
 Rotational               0.889              2.981             33.382
 Vibrational            233.142             63.382             75.112
 Vibration     1          0.593              1.985              6.497
 Vibration     2          0.593              1.985              6.157
 Vibration     3          0.594              1.983              5.676
 Vibration     4          0.595              1.979              4.981
 Vibration     5          0.595              1.978              4.856
 Vibration     6          0.597              1.972              4.380
 Vibration     7          0.599              1.965              3.967
 Vibration     8          0.601              1.957              3.699
 Vibration     9          0.606              1.944              3.327
 Vibration    10          0.608              1.935              3.146
 Vibration    11          0.618              1.903              2.678
 Vibration    12          0.629              1.867              2.333
 Vibration    13          0.637              1.842              2.144
 Vibration    14          0.652              1.796              1.885
 Vibration    15          0.655              1.785              1.832
 Vibration    16          0.662              1.763              1.733
 Vibration    17          0.674              1.727              1.592
 Vibration    18          0.681              1.708              1.526
 Vibration    19          0.693              1.672              1.413
 Vibration    20          0.719              1.597              1.215
 Vibration    21          0.742              1.533              1.078
 Vibration    22          0.748              1.518              1.049
 Vibration    23          0.770              1.461              0.947
 Vibration    24          0.792              1.402              0.855
 Vibration    25          0.867              1.223              0.628
 Vibration    26          0.896              1.160              0.564
 Vibration    27          0.978              0.994              0.419

                           ! Non-Optimized Parameters !
 Normal termination of Gaussian 16 at Sun Dec 13 12:59:11 2020.

 ----------------------------------------------------------------------
 # B3LYP/6-311++G(d,p) empiricaldispersion=gd3bj scf=xqc pop=npa geom=c
 heck
 ----------------------------------------------------------------------

 ---------------------------------------
 CID_108057001_JID_7147_Energie_neutraal
 ---------------------------------------
 Structure from the checkpoint file:  "JID_7147.chk"
 Charge =  0 Multiplicity = 1

 SCF Done:  E(RB3LYP) =  -786.057315259     A.U. after   15 cycles
 Normal termination of Gaussian 16 at Sun Dec 13 13:07:36 2020.

 ----------------------------------------------------------------------
 # B3LYP/6-311++G(d,p) empiricaldispersion=gd3bj scf=xqc pop=npa geom=c
 heck
 ----------------------------------------------------------------------

 -------------------------------------
 CID_108057001_JID_7147_Energie_kation
 -------------------------------------
 Structure from the checkpoint file:  "JID_7147.chk"
 Charge =  1 Multiplicity = 2

 SCF Done:  E(UB3LYP) =  -785.787033414     A.U. after   23 cycles
 Normal termination of Gaussian 16 at Sun Dec 13 13:26:36 2020.
 Gaussian 16:  ES64L-G16RevA.03 25-Dec-2016

 ----------------------------------------------------------------------
 # B3LYP/6-311++G(d,p) empiricaldispersion=gd3bj scf=xqc pop=npa geom=c
 heck
 ----------------------------------------------------------------------

 ------------------------------------
 CID_108057001_JID_7147_Energie_anion
 ------------------------------------
 Structure from the checkpoint file:  "JID_7147.chk"
 Charge = -1 Multiplicity = 2

                         Standard orientation:
 ---------------------------------------------------------------------
 Center     Atomic      Atomic             Coordinates (Angstroms)
 Number     Number       Type             X           Y           Z
 ---------------------------------------------------------------------
      1          6           0        1.752480    3.095299    1.270761
      2          6           0        1.779519    3.138494   -0.260972
      3          6           0        1.414760    1.799218   -0.906915
      4          7           0        0.029479    1.447538   -0.627341
      5          6           0       -0.502265    0.271087   -1.310519
      6          6           0        0.337532   -1.037254   -1.257334
      7          8           0        0.235580   -1.760961   -0.037734
      8          6           0        1.006701   -1.298279    1.055548
      9          6           0        2.434730   -1.819867    1.049714
     10          8           0        3.186703   -1.146169    0.054511
     11          6           0        4.514467   -1.612944   -0.037485
     12          6           0       -1.893877   -0.002328   -0.807782
     13          7           0       -2.198080    0.220269    0.473286
     14          7           0       -3.478827   -0.190664    0.610924
     15          6           0       -3.991520   -0.668249   -0.553618
     16          6           0       -2.990495   -0.564830   -1.500835
     17          6           0       -4.143433   -0.036902    1.886464
     18          1           0        0.740140    2.919917    1.652825
     19          1           0        2.100600    4.040660    1.701663
     20          1           0        2.400352    2.294957    1.650918
     21          1           0        1.088520    3.909122   -0.623649
     22          1           0        2.786660    3.419813   -0.595888
     23          1           0        1.517076    1.882639   -1.998208
     24          1           0        2.146597    1.039749   -0.580754
     25          1           0       -0.162082    1.378012    0.366824
     26          1           0       -0.563554    0.519582   -2.382578
     27          1           0       -0.064091   -1.717517   -2.016811
     28          1           0        1.383680   -0.831705   -1.505861
     29          1           0        1.018390   -0.205255    1.117798
     30          1           0        0.506011   -1.675915    1.954365
     31          1           0        2.889948   -1.655919    2.043052
     32          1           0        2.426249   -2.904589    0.856009
     33          1           0        5.058636   -1.474581    0.910771
     34          1           0        4.551404   -2.680879   -0.304635
     35          1           0        5.008637   -1.031410   -0.819737
     36          1           0       -5.007934   -1.030335   -0.614698
     37          1           0       -3.040189   -0.853949   -2.540619
     38          1           0       -3.542279   -0.500762    2.672882
     39          1           0       -4.283064    1.022771    2.123489
     40          1           0       -5.117579   -0.528033    1.838388
 ---------------------------------------------------------------------

 SCF Done:  E(UB3LYP) =  -786.044292321     A.U. after   33 cycles
 SCF Done:  E(UB3LYP) =  -786.044292321     a.u. after    1 cycles

 The electronic state is 2-A.
 Alpha  occ. eigenvalues --  -19.04150 -19.02745 -14.29612 -14.22952 -14.19906
 Alpha  occ. eigenvalues --  -10.12718 -10.12406 -10.12406 -10.11796 -10.11684
 Alpha  occ. eigenvalues --  -10.11378 -10.11249 -10.09967 -10.09542 -10.07796
 Alpha  occ. eigenvalues --  -10.07331 -10.07159  -0.95769  -0.95571  -0.93656
 Alpha  occ. eigenvalues --   -0.81740  -0.75114  -0.69390  -0.69211  -0.67653
 Alpha  occ. eigenvalues --   -0.64264  -0.60811  -0.58849  -0.57419  -0.53731
 Alpha  occ. eigenvalues --   -0.51585  -0.49941  -0.48629  -0.45963  -0.43821
 Alpha  occ. eigenvalues --   -0.41699  -0.41053  -0.39375  -0.39100  -0.38310
 Alpha  occ. eigenvalues --   -0.38027  -0.37028  -0.36134  -0.34674  -0.34356
 Alpha  occ. eigenvalues --   -0.33984  -0.33314  -0.31641  -0.31521  -0.31132
 Alpha  occ. eigenvalues --   -0.30491  -0.29659  -0.29056  -0.28023  -0.27517
 Alpha  occ. eigenvalues --   -0.25611  -0.25104  -0.24706  -0.24108  -0.21814
 Alpha  occ. eigenvalues --   -0.20161  -0.18087  -0.17387  -0.15765  -0.15179
 Alpha  occ. eigenvalues --   -0.12167   0.03904
 Alpha virt. eigenvalues --    0.05042   0.06620   0.06660   0.07389   0.07686
 Alpha virt. eigenvalues --    0.08352   0.08684   0.09133   0.09460   0.09690
 Alpha virt. eigenvalues --    0.10087   0.11040   0.11246   0.11620   0.11862

  Beta  occ. eigenvalues --  -19.04143 -19.02743 -14.29611 -14.22946 -14.19904
  Beta  occ. eigenvalues --  -10.12702 -10.12399 -10.12365 -10.11794 -10.11635
  Beta  occ. eigenvalues --  -10.11377 -10.11229 -10.09967 -10.09539 -10.07790
  Beta  occ. eigenvalues --  -10.07320 -10.07157  -0.95758  -0.95563  -0.93650
  Beta  occ. eigenvalues --   -0.81735  -0.75099  -0.69377  -0.69192  -0.67633
  Beta  occ. eigenvalues --   -0.64240  -0.60768  -0.58814  -0.57376  -0.53699
  Beta  occ. eigenvalues --   -0.51557  -0.49909  -0.48610  -0.45934  -0.43780
  Beta  occ. eigenvalues --   -0.41659  -0.41034  -0.39361  -0.39082  -0.38288
  Beta  occ. eigenvalues --   -0.38001  -0.37006  -0.36115  -0.34640  -0.34334
  Beta  occ. eigenvalues --   -0.33971  -0.33288  -0.31623  -0.31489  -0.31096
  Beta  occ. eigenvalues --   -0.30474  -0.29631  -0.29034  -0.28005  -0.27504
  Beta  occ. eigenvalues --   -0.25596  -0.25091  -0.24694  -0.24069  -0.21807
  Beta  occ. eigenvalues --   -0.20152  -0.18070  -0.17372  -0.15754  -0.15172
  Beta  occ. eigenvalues --   -0.12160
  Beta virt. eigenvalues --    0.05812   0.06479   0.06850   0.06915   0.07808
  Beta virt. eigenvalues --    0.08222   0.08565   0.09009   0.09266   0.09547
  Beta virt. eigenvalues --    0.10193   0.10349   0.11167   0.11300   0.11841

 Mulliken charges and spin densities:
               1          2
     1  C   -0.200752  -0.323263
     2  C   -0.375736  -0.037047
     3  C   -0.273146   0.067335
     4  N    0.068361  -0.032401
     5  C    0.281930  -0.635264
     6  C   -0.475249  -0.082578
     7  O    0.000025  -0.002221
     8  C   -0.384187   0.132302
     9  C    0.225809  -0.565681
    10  O   -0.207758   0.080223
    11  C    0.616623  -0.906513
    12  C   -0.201592  -0.152241
    13  N   -0.375278   0.180719
    14  N    0.215147   0.092122
    15  C    0.073580  -0.247386
    16  C   -0.014212   0.053782
    17  C    1.011779  -1.321464
    18  H    0.034038   0.120001
    19  H   -0.000234   0.150122
    20  H   -0.007478   0.150155
    21  H    0.134746   0.004710
    22  H    0.001094   0.139233
    23  H   -0.001951   0.128478
    24  H    0.470177  -0.259722
    25  H    0.349537  -0.131895
    26  H    0.132579   0.057354
    27  H    0.021344   0.121036
    28  H    0.272051  -0.044840
    29  H    0.282674  -0.126250
    30  H   -0.101592   0.281130
    31  H   -0.094426   0.225236
    32  H    0.119358   0.050935
    33  H   -0.325685   0.467149
    34  H   -0.217691   0.346321
    35  H   -0.328112   0.459810
    36  H   -0.816570   0.989994
    37  H    0.059531   0.095351
    38  H   -0.146492   0.319576
    39  H   -0.157800   0.333833
    40  H   -0.664446   0.821863
 Sum of Mulliken charges =  -1.00000   1.00000

 Dipole moment (field-independent basis, Debye):
    X=              2.6572    Y=              1.9761    Z=             -3.3115  Tot=              4.6831
 Quadrupole moment (field-independent basis, Debye-Ang):
   XX=           -229.6092   YY=           -148.0935   ZZ=           -138.6539
   XY=             -0.3600   XZ=              8.0996   YZ=              1.4034

 Summary of Natural Population Analysis:

                                       Natural Population
                Natural  -----------------------------------------------
    Atom  No    Charge         Core      Valence    Rydberg      Total
 -----------------------------------------------------------------------
      C    1   -0.28935      0.99967     2.28529    0.00439     3.28935
      C    2   -0.19007      0.99964     2.18303    0.00740     3.19007
      C    3   -0.09695      0.99962     2.08527    0.01206     3.09695
      N    4   -0.34536      0.99973     2.83439    0.01124     3.84536
      C    5   -0.02921      0.99955     2.01850    0.01116     3.02921
      C    6   -0.01639      0.99954     2.00378    0.01306     3.01639
      O    7   -0.30044      0.99988     3.29066    0.00989     4.30044
      C    8   -0.02000      0.99956     2.00654    0.01391     3.02000
      C    9   -0.02084      0.99958     2.00900    0.01226     3.02084
      O   10   -0.30251      0.99988     3.29239    0.01024     4.30251
      C   11   -0.09643      0.99962     2.08744    0.00937     3.09643
      C   12    0.07978      0.99957     1.90342    0.01723     2.92022
      N   13   -0.16301      0.99968     2.65210    0.01124     3.66301
      N   14   -0.10406      0.99967     2.59147    0.01293     3.60406
      C   15   -0.00144      0.99956     1.99012    0.01176     3.00144
      C   16   -0.16313      0.99951     2.15505    0.00857     3.16313
      C   17   -0.17054      0.99963     2.16258    0.00833     3.17054
      H   18    0.09713      0.00000     0.40181    0.00105     0.40287
      H   19    0.09727      0.00000     0.40191    0.00083     0.40273
      H   20    0.09818      0.00000     0.40049    0.00134     0.40182
      H   21    0.09530      0.00000     0.40341    0.00129     0.40470
      H   22    0.09412      0.00000     0.40483    0.00104     0.40588
      H   23    0.08879      0.00000     0.41017    0.00104     0.41121
      H   24    0.09007      0.00000     0.40760    0.00233     0.40993
      H   25    0.18212      0.00000     0.31366    0.00422     0.31788
      H   26    0.09442      0.00000     0.40389    0.00169     0.40558
      H   27    0.08885      0.00000     0.41002    0.00113     0.41115
      H   28    0.09359      0.00000     0.40482    0.00160     0.40641
      H   29    0.08469      0.00000     0.41296    0.00235     0.41531
      H   30    0.09301      0.00000     0.40585    0.00113     0.40699
      H   31    0.08083      0.00000     0.41766    0.00152     0.41917
      H   32    0.08210      0.00000     0.41642    0.00148     0.41790
      H   33    0.08016      0.00000     0.41771    0.00213     0.41984
      H   34    0.07835      0.00000     0.42006    0.00158     0.42165
      H   35    0.09129      0.00000     0.40749    0.00122     0.40871
      H   36    0.10599      0.00000     0.39230    0.00170     0.39401
      H   37    0.10682      0.00000     0.39242    0.00076     0.39318
      H   38    0.10303      0.00000     0.39552    0.00145     0.39697
      H   39    0.09947      0.00000     0.39918    0.00135     0.40053
      H   40    0.10438      0.00000     0.39247    0.00315     0.39562
 =======================================================================
   * Total *    0.00000     16.99391    48.78367    0.22242    66.00000

 Normal termination of Gaussian 16 at Sun Dec 13 13:52:31 2020.
