 Gaussian 16, Revision A.03,

 -----------------------------------------------------------
 # opt freq B3LYP/6-31G(d) empiricaldispersion=gd3bj scf=xqc
 -----------------------------------------------------------

 ------------------------------
 CID_141194729_JID_451_neutraal
 ------------------------------
 Symbolic Z-matrix:
 Charge =  0 Multiplicity = 1

 SCF Done:  E(RB3LYP) =  -499.628989266     A.U. after   14 cycles
 SCF Done:  E(RB3LYP) =  -499.635414037     A.U. after   12 cycles
 SCF Done:  E(RB3LYP) =  -499.636287232     A.U. after   11 cycles
 SCF Done:  E(RB3LYP) =  -499.636618326     A.U. after   11 cycles
 SCF Done:  E(RB3LYP) =  -499.636729442     A.U. after   11 cycles
 SCF Done:  E(RB3LYP) =  -499.636876772     A.U. after   11 cycles
 SCF Done:  E(RB3LYP) =  -499.636954030     A.U. after   11 cycles
 SCF Done:  E(RB3LYP) =  -499.637013708     A.U. after   10 cycles
 SCF Done:  E(RB3LYP) =  -499.637104575     A.U. after   11 cycles
 SCF Done:  E(RB3LYP) =  -499.637097885     A.U. after   10 cycles
 SCF Done:  E(RB3LYP) =  -499.637121767     A.U. after   10 cycles
 SCF Done:  E(RB3LYP) =  -499.637117917     A.U. after    9 cycles
 SCF Done:  E(RB3LYP) =  -499.637123752     A.U. after    9 cycles
 SCF Done:  E(RB3LYP) =  -499.637123751     A.U. after    7 cycles
 SCF Done:  E(RB3LYP) =  -499.637123896     A.U. after    7 cycles
 Optimization completed.
    -- Stationary point found.

 1\1\GINC-NODE311\FOpt\RB3LYP\6-31G(d)\C7H12O3\VSC10255\08-Dec-2020\0\\
 # opt freq B3LYP/6-31G(d) empiricaldispersion=gd3bj scf=xqc\\CID_14119
 4729_JID_451_neutraal\\0,1\C,0.8990894229,-0.1927856301,-0.2236496263\
 C,0.740686385,1.2259798421,-0.7125230223\O,0.3717172128,2.0994819508,0
 .357765635\C,1.0849447363,3.2777125488,0.1265902623\C,2.0296108633,3.0
 557006916,-0.7941411461\O,1.9773932192,1.7306339151,-1.2307466339\C,3.
 0924529578,3.9074676868,-1.4169204077\C,2.6513364569,4.5100315676,-2.7
 48431409\O,3.4605863886,4.9952223081,-0.5683880921\C,0.6954690082,4.46

 Normal termination of Gaussian 16 at Tue Dec  8 10:38:22 2020.

 --------------------------------------------------------------------
 #N Geom=AllCheck Guess=TCheck SCRF=Check GenChk RB3LYP/6-31G(d) Freq
 --------------------------------------------------------------------

 Structure from the checkpoint file:  "JID_451.chk"
 ------------------------------
 CID_141194729_JID_451_neutraal
 ------------------------------
 Charge =  0 Multiplicity = 1

 SCF Done:  E(RB3LYP) =  -499.637123896     A.U. after    1 cycles

  Exact polarizability:  92.889  -1.051  89.233   1.753  -0.341  65.346
 Approx polarizability: 116.845  -7.631 135.778   5.840  -4.486  93.847

                      1                      2                      3
                      A                      A                      A
 Frequencies --     48.6056                76.9620               138.5201
 Red. masses --      3.3369                 3.5525                 3.4647
 Frc consts  --      0.0046                 0.0124                 0.0392
 IR Inten    --      0.6045                 2.8417                 2.2822

                      4                      5                      6
                      A                      A                      A
 Frequencies --    175.2752               207.6224               223.4550
 Red. masses --      2.7621                 1.6018                 1.5088
 Frc consts  --      0.0500                 0.0407                 0.0444
 IR Inten    --      0.1330                 0.4351                 0.2579

                      7                      8                      9
                      A                      A                      A
 Frequencies --    229.3025               256.6898               281.8148
 Red. masses --      1.1744                 1.1636                 2.5774
 Frc consts  --      0.0364                 0.0452                 0.1206
 IR Inten    --      1.4795                 2.2531                 4.7249

                     10                     11                     12
                      A                      A                      A
 Frequencies --    325.3535               378.2208               407.4254
 Red. masses --      2.8652                 3.3361                 1.2950
 Frc consts  --      0.1787                 0.2812                 0.1267
 IR Inten    --     18.3206                 2.8001               132.5136

                     13                     14                     15
                      A                      A                      A
 Frequencies --    429.9940               479.4201               510.4367
 Red. masses --      2.9568                 3.1230                 3.4714
 Frc consts  --      0.3221                 0.4229                 0.5329
 IR Inten    --     11.3543                 5.4253                 6.8870

                     16                     17                     18
                      A                      A                      A
 Frequencies --    614.7641               663.0544               695.9937
 Red. masses --      5.7955                 3.8220                 3.7120
 Frc consts  --      1.2905                 0.9900                 1.0594
 IR Inten    --      3.0538                 9.0609                31.6213

                     19                     20                     21
                      A                      A                      A
 Frequencies --    754.8358               869.8342               895.3778
 Red. masses --      6.0649                 2.6049                 2.9964
 Frc consts  --      2.0360                 1.1612                 1.4153
 IR Inten    --      0.9653                11.2917                10.3232

                     22                     23                     24
                      A                      A                      A
 Frequencies --    924.2517               959.1475              1025.7040
 Red. masses --      2.1533                 2.5938                 1.9685
 Frc consts  --      1.0838                 1.4059                 1.2202
 IR Inten    --     20.7430                15.3729                45.9739

                     25                     26                     27
                      A                      A                      A
 Frequencies --   1069.0328              1086.4255              1102.7950
 Red. masses --      1.6989                 1.4289                 1.7448
 Frc consts  --      1.1440                 0.9937                 1.2502
 IR Inten    --     14.7051                 0.6432                17.4013

                     28                     29                     30
                      A                      A                      A
 Frequencies --   1135.3368              1148.8621              1167.5021
 Red. masses --      2.5507                 2.5556                 2.1531
 Frc consts  --      1.9372                 1.9873                 1.7291
 IR Inten    --      3.5002               131.6773                 9.9198

                     31                     32                     33
                      A                      A                      A
 Frequencies --   1184.5381              1243.4954              1278.3858
 Red. masses --      2.5246                 2.8607                 2.8786
 Frc consts  --      2.0871                 2.6062                 2.7717
 IR Inten    --     73.7652               189.7372                49.0124

                     34                     35                     36
                      A                      A                      A
 Frequencies --   1308.2986              1385.7758              1410.0693
 Red. masses --      1.2940                 1.3042                 1.2872
 Frc consts  --      1.3050                 1.4756                 1.5079
 IR Inten    --     58.3662                 1.6162                 3.0088

                     37                     38                     39
                      A                      A                      A
 Frequencies --   1415.8117              1430.0957              1439.2968
 Red. masses --      1.2616                 1.5520                 1.4839
 Frc consts  --      1.4900                 1.8702                 1.8112
 IR Inten    --     11.4601                19.0925                11.3937

                     40                     41                     42
                      A                      A                      A
 Frequencies --   1444.2720              1454.5149              1513.5704
 Red. masses --      1.3890                 1.5480                 1.0457
 Frc consts  --      1.7071                 1.9295                 1.4115
 IR Inten    --     25.1435                57.8432                 7.8122

                     43                     44                     45
                      A                      A                      A
 Frequencies --   1514.2895              1516.7472              1518.1641
 Red. masses --      1.0526                 1.0482                 1.0502
 Frc consts  --      1.4222                 1.4207                 1.4261
 IR Inten    --      1.9349                 1.2566                 3.9589

                     46                     47                     48
                      A                      A                      A
 Frequencies --   1522.2210              1524.4523              1795.1153
 Red. masses --      1.0649                 1.0632                 9.1214
 Frc consts  --      1.4539                 1.4557                17.3179
 IR Inten    --      5.6598                 1.4493                35.0871

                     49                     50                     51
                      A                      A                      A
 Frequencies --   2957.9083              2985.2918              3040.9003
 Red. masses --      1.0854                 1.0829                 1.0402
 Frc consts  --      5.5949                 5.6861                 5.6671
 IR Inten    --    112.3951                52.4428                39.2725

                     52                     53                     54
                      A                      A                      A
 Frequencies --   3062.7807              3070.0256              3086.7232
 Red. masses --      1.0338                 1.0347                 1.1004
 Frc consts  --      5.7135                 5.7456                 6.1775
 IR Inten    --     17.4882                 9.4766                17.3847

                     55                     56                     57
                      A                      A                      A
 Frequencies --   3139.8227              3143.6709              3146.3192
 Red. masses --      1.1040                 1.1033                 1.1032
 Frc consts  --      6.4128                 6.4243                 6.4344
 IR Inten    --     28.7512                18.1407                12.7149

                     58                     59                     60
                      A                      A                      A
 Frequencies --   3153.5184              3166.8870              3731.1791
 Red. masses --      1.1040                 1.0977                 1.0658
 Frc consts  --      6.4687                 6.4862                 8.7424
 IR Inten    --     19.9173                 2.6347                 9.4656

 - Thermochemistry -
 -------------------
 Temperature   298.150 Kelvin.  Pressure   1.00000 Atm.
 Atom     1 has atomic number  6 and mass  12.00000

 Molecular mass:   144.07864 amu.
 Principal axes and moments of inertia in atomic units:
                           1         2         3
     Eigenvalues --   838.161581884.647162405.30816
           X            0.99986   0.00851  -0.01451
           Y           -0.00836   0.99991   0.01031
           Z            0.01460  -0.01018   0.99984
 This molecule is an asymmetric top.
 Rotational symmetry number  1.
 Warning -- assumption of classical behavior for rotation
           may cause significant error
 Rotational temperatures (Kelvin)      0.10334     0.04596     0.03601
 Rotational constants (GHZ):           2.15321     0.95760     0.75032
 Zero-point vibrational energy     489668.4 (Joules/Mol)
                                  117.03355 (Kcal/Mol)
 Warning -- explicit consideration of  16 degrees of freedom as
           vibrations may cause significant error
 Vibrational temperatures:     69.93   110.73   199.30   252.18   298.72
          (Kelvin)            321.50   329.92   369.32   405.47   468.11
                              544.18   586.19   618.67   689.78   734.40
                              884.51   953.99  1001.38  1086.04  1251.50
                             1288.25  1329.79  1380.00  1475.76  1538.10
                             1563.12  1586.68  1633.50  1652.96  1679.78
                             1704.29  1789.11  1839.31  1882.35  1993.82
                             2028.78  2037.04  2057.59  2070.83  2077.99
                             2092.72  2177.69  2178.72  2182.26  2184.30
                             2190.14  2193.35  2582.77  4255.77  4295.17
                             4375.18  4406.66  4417.08  4441.11  4517.50
                             4523.04  4526.85  4537.21  4556.44  5368.33

 Zero-point correction=                           0.186505 (Hartree/Particle)
 Thermal correction to Energy=                    0.197489
 Thermal correction to Enthalpy=                  0.198433
 Thermal correction to Gibbs Free Energy=         0.150090
 Sum of electronic and zero-point Energies=           -499.450619
 Sum of electronic and thermal Energies=              -499.439635
 Sum of electronic and thermal Enthalpies=            -499.438690
 Sum of electronic and thermal Free Energies=         -499.487034

                     E (Thermal)             CV                S
                      KCal/Mol        Cal/Mol-Kelvin    Cal/Mol-Kelvin
 Total                  123.926             40.284            101.748
 Electronic               0.000              0.000              0.000
 Translational            0.889              2.981             40.807
 Rotational               0.889              2.981             29.720
 Vibrational            122.149             34.322             31.222
 Vibration     1          0.595              1.978              4.873
 Vibration     2          0.599              1.965              3.967
 Vibration     3          0.614              1.915              2.824
 Vibration     4          0.627              1.873              2.378
 Vibration     5          0.641              1.829              2.064
 Vibration     6          0.649              1.805              1.931
 Vibration     7          0.652              1.796              1.884
 Vibration     8          0.666              1.751              1.684
 Vibration     9          0.681              1.707              1.523
 Vibration    10          0.709              1.625              1.283
 Vibration    11          0.748              1.517              1.046
 Vibration    12          0.772              1.454              0.936
 Vibration    13          0.791              1.405              0.859
 Vibration    14          0.836              1.296              0.712
 Vibration    15          0.866              1.227              0.633
 Vibration    16          0.974              1.001              0.425

 Optimization completed.
    -- Stationary point found.

 1\1\GINC-NODE311\Freq\RB3LYP\6-31G(d)\C7H12O3\VSC10255\08-Dec-2020\0\\
 #N Geom=AllCheck Guess=TCheck SCRF=Check GenChk RB3LYP/6-31G(d) Freq\\
 CID_141194729_JID_451_neutraal\\0,1\C,0.8990894229,-0.1927856301,-0.22
 36496263\C,0.740686385,1.2259798421,-0.7125230223\O,0.3717172128,2.099
 4819508,0.357765635\C,1.0849447363,3.2777125488,0.1265902623\C,2.02961
 08633,3.0557006916,-0.7941411461\O,1.9773932192,1.7306339151,-1.230746
 6339\C,3.0924529578,3.9074676868,-1.4169204077\C,2.6513364569,4.510031
 5676,-2.748431409\O,3.4605863886,4.9952223081,-0.5683880921\C,0.695469

 Normal termination of Gaussian 16 at Tue Dec  8 10:44:25 2020.

 ----------------------------------------------------------------------
 # B3LYP/6-311++G(d,p) empiricaldispersion=gd3bj scf=xqc pop=npa geom=c
 heck
 ----------------------------------------------------------------------

 --------------------------------------
 CID_141194729_JID_451_Energie_neutraal
 --------------------------------------
 Structure from the checkpoint file:  "JID_451.chk"
 Charge =  0 Multiplicity = 1

 SCF Done:  E(RB3LYP) =  -499.791894739     A.U. after   13 cycles
 Normal termination of Gaussian 16 at Tue Dec  8 10:46:43 2020.

 ----------------------------------------------------------------------
 # B3LYP/6-311++G(d,p) empiricaldispersion=gd3bj scf=xqc pop=npa geom=c
 heck
 ----------------------------------------------------------------------

 ------------------------------------
 CID_141194729_JID_451_Energie_kation
 ------------------------------------
 Structure from the checkpoint file:  "JID_451.chk"
 Charge =  1 Multiplicity = 2

 SCF Done:  E(UB3LYP) =  -499.513356006     A.U. after   20 cycles
 Normal termination of Gaussian 16 at Tue Dec  8 10:50:55 2020.
 Gaussian 16:  ES64L-G16RevA.03 25-Dec-2016

 -----------------------------------
 CID_141194729_JID_451_Energie_anion
 -----------------------------------
 Structure from the checkpoint file:  "JID_451.chk"
 Charge = -1 Multiplicity = 2

                         Standard orientation:
 ---------------------------------------------------------------------
 Center     Atomic      Atomic             Coordinates (Angstroms)
 Number     Number       Type             X           Y           Z
 ---------------------------------------------------------------------
      1          6           0       -3.129034   -0.755665    0.409575
      2          6           0       -1.877047   -0.413923   -0.360313
      3          8           0       -1.563860    0.976078   -0.240006
      4          6           0       -0.172779    1.025963   -0.127013
      5          6           0        0.300706   -0.201080    0.117133
      6          8           0       -0.746138   -1.123855    0.159030
      7          6           0        1.671343   -0.756712    0.352979
      8          6           0        2.300327   -1.317760   -0.919889
      9          8           0        2.563876    0.237867    0.855907
     10          6           0        0.460700    2.361717   -0.258117
     11          1           0       -3.341795   -1.825376    0.322566
     12          1           0       -3.978398   -0.192477    0.011408
     13          1           0       -2.991100   -0.500744    1.463911
     14          1           0       -1.971873   -0.656655   -1.434220
     15          1           0        1.561259   -1.578452    1.080078
     16          1           0        2.430053   -0.515980   -1.653286
     17          1           0        3.277650   -1.757230   -0.697098
     18          1           0        1.651149   -2.087076   -1.348675
     19          1           0        2.150456    0.611738    1.650649
     20          1           0        0.258244    2.794100   -1.245822
     21          1           0        0.058042    3.059071    0.488077
     22          1           0        1.539992    2.273114   -0.123172
 ---------------------------------------------------------------------

 SCF Done:  E(UB3LYP) =  -499.774388502     A.U. after   33 cycles
 SCF Done:  E(UB3LYP) =  -499.774388502     a.u. after    1 cycles

 The electronic state is 2-A.
 Alpha  occ. eigenvalues --  -19.04186 -19.04089 -19.01758 -10.17498 -10.12871
 Alpha  occ. eigenvalues --  -10.11445 -10.10768 -10.06440 -10.06347 -10.05846
 Alpha  occ. eigenvalues --   -1.00590  -0.92211  -0.90829  -0.70552  -0.65561
 Alpha  occ. eigenvalues --   -0.63539  -0.58195  -0.52424  -0.51549  -0.46949
 Alpha  occ. eigenvalues --   -0.42372  -0.40413  -0.38738  -0.35416  -0.33253
 Alpha  occ. eigenvalues --   -0.31769  -0.31174  -0.30682  -0.29327  -0.28421
 Alpha  occ. eigenvalues --   -0.28179  -0.27734  -0.26397  -0.26130  -0.24036
 Alpha  occ. eigenvalues --   -0.23112  -0.22392  -0.17772  -0.08952   0.04929
 Alpha virt. eigenvalues --    0.07206   0.07855   0.08094   0.09648   0.10324
 Alpha virt. eigenvalues --    0.10663   0.11169   0.11352   0.12684   0.13539
 Alpha virt. eigenvalues --    0.13652   0.14185   0.15650   0.16023   0.16970

  Beta  occ. eigenvalues --  -19.04176 -19.04078 -19.01714 -10.17480 -10.12855
  Beta  occ. eigenvalues --  -10.11443 -10.10768 -10.06408 -10.06307 -10.05823
  Beta  occ. eigenvalues --   -1.00575  -0.92125  -0.90808  -0.70521  -0.65508
  Beta  occ. eigenvalues --   -0.63492  -0.58147  -0.52370  -0.51492  -0.46896
  Beta  occ. eigenvalues --   -0.42303  -0.40347  -0.38695  -0.35377  -0.33214
  Beta  occ. eigenvalues --   -0.31723  -0.31133  -0.30642  -0.29289  -0.28379
  Beta  occ. eigenvalues --   -0.28145  -0.27697  -0.26361  -0.26089  -0.23986
  Beta  occ. eigenvalues --   -0.23088  -0.22353  -0.17726  -0.08927
  Beta virt. eigenvalues --    0.07280   0.08133   0.08609   0.08889   0.10196
  Beta virt. eigenvalues --    0.10961   0.11135   0.11702   0.11778   0.13055
  Beta virt. eigenvalues --    0.13882   0.14088   0.14351   0.15713   0.16076

 Mulliken charges and spin densities:
               1          2
     1  C    1.235340  -1.577533
     2  C   -0.481555   0.137162
     3  O   -0.117745   0.084143
     4  C    1.582116  -1.340934
     5  C   -2.364695   2.806038
     6  O   -0.086853   0.045081
     7  C   -0.841606   0.300331
     8  C    0.553909  -1.032502
     9  O   -0.167619  -0.041288
    10  C    2.269767  -2.999322
    11  H   -0.298424   0.454997
    12  H   -0.180099   0.332969
    13  H   -0.215861   0.376592
    14  H   -0.349877   0.517442
    15  H   -0.188823   0.376158
    16  H   -0.002088   0.159809
    17  H   -0.052461   0.192524
    18  H   -0.250347   0.417691
    19  H   -0.382406   0.644869
    20  H   -0.307287   0.465325
    21  H   -0.395586   0.555342
    22  H    0.042200   0.125106
 Sum of Mulliken charges =  -1.00000   1.00000

 Dipole moment (field-independent basis, Debye):
    X=              0.0421    Y=             -0.8996    Z=             -1.3376  Tot=              1.6126
 Quadrupole moment (field-independent basis, Debye-Ang):
   XX=           -113.0118   YY=           -101.9238   ZZ=            -93.6423
   XY=             -3.8293   XZ=             -5.1118   YZ=             -2.9865

 Summary of Natural Population Analysis:

                                       Natural Population
                Natural  -----------------------------------------------
    Atom  No    Charge         Core      Valence    Rydberg      Total
 -----------------------------------------------------------------------
      C    1   -0.29739      0.99963     2.29227    0.00548     3.29739
      C    2    0.22777      0.99961     1.75502    0.01761     2.77223
      O    3   -0.29042      0.99987     3.28041    0.01014     4.29042
      C    4    0.12645      0.99936     1.85937    0.01482     2.87355
      C    5    0.10182      0.99931     1.88235    0.01652     2.89818
      O    6   -0.28978      0.99987     3.28012    0.00979     4.28978
      C    7    0.04782      0.99953     1.93833    0.01432     2.95218
      C    8   -0.28385      0.99964     2.27894    0.00527     3.28385
      O    9   -0.37085      0.99990     3.36379    0.00717     4.37085
      C   10   -0.30440      0.99963     2.29969    0.00509     3.30440
      H   11    0.10476      0.00000     0.39328    0.00197     0.39524
      H   12    0.10398      0.00000     0.39425    0.00176     0.39602
      H   13    0.10561      0.00000     0.39259    0.00179     0.39439
      H   14    0.06668      0.00000     0.43112    0.00219     0.43332
      H   15    0.08432      0.00000     0.41287    0.00281     0.41568
      H   16    0.10099      0.00000     0.39771    0.00130     0.39901
      H   17    0.09926      0.00000     0.39950    0.00125     0.40074
      H   18    0.10290      0.00000     0.39532    0.00178     0.39710
      H   19    0.23629      0.00000     0.25448    0.00923     0.26371
      H   20    0.10405      0.00000     0.39401    0.00194     0.39595
      H   21    0.10617      0.00000     0.39171    0.00212     0.39383
      H   22    0.11785      0.00000     0.38078    0.00137     0.38215
 =======================================================================
   * Total *   -0.00000      9.99635    28.86793    0.13571    39.00000

 Normal termination of Gaussian 16 at Tue Dec  8 10:56:07 2020.
