 Gaussian 16, Revision A.03,

 -----------------------------------------------------------
 # opt freq B3LYP/6-31G(d) empiricaldispersion=gd3bj scf=xqc
 -----------------------------------------------------------

 -------------------------------
 CID_115007557_JID_7686_neutraal
 -------------------------------
 Symbolic Z-matrix:
 Charge =  0 Multiplicity = 1

 SCF Done:  E(RB3LYP) =  -818.371780514     A.U. after   15 cycles
 SCF Done:  E(RB3LYP) =  -818.378303085     A.U. after   12 cycles
 SCF Done:  E(RB3LYP) =  -818.378763336     A.U. after   11 cycles
 SCF Done:  E(RB3LYP) =  -818.378831900     A.U. after   11 cycles
 SCF Done:  E(RB3LYP) =  -818.378838960     A.U. after   10 cycles
 SCF Done:  E(RB3LYP) =  -818.378869263     A.U. after    9 cycles
 SCF Done:  E(RB3LYP) =  -818.378879301     A.U. after    9 cycles
 SCF Done:  E(RB3LYP) =  -818.378884432     A.U. after    9 cycles
 SCF Done:  E(RB3LYP) =  -818.378886998     A.U. after    9 cycles
 SCF Done:  E(RB3LYP) =  -818.378887271     A.U. after    7 cycles
 Optimization completed.
    -- Stationary point found.
 Normal termination of Gaussian 16 at Sun Dec 13 16:01:39 2020.

 --------------------------------------------------------------------
 #N Geom=AllCheck Guess=TCheck SCRF=Check GenChk RB3LYP/6-31G(d) Freq
 --------------------------------------------------------------------

 Structure from the checkpoint file:  "JID_7686.chk"
 -------------------------------
 CID_115007557_JID_7686_neutraal
 -------------------------------
 Charge =  0 Multiplicity = 1

 SCF Done:  E(RB3LYP) =  -818.378887271     A.U. after    1 cycles

  Exact polarizability: 282.045   6.865 139.437   0.001  -0.002  55.543
 Approx polarizability: 395.910  15.335 269.962   0.003  -0.008  86.502

                      1                      2                      3
                      A                      A                      A
 Frequencies --     49.8005                81.2696                85.6552
 Red. masses --      4.2107                 4.2671                 8.8615
 Frc consts  --      0.0062                 0.0166                 0.0383
 IR Inten    --      2.2977                 0.7682                 0.0002

                      4                      5                      6
                      A                      A                      A
 Frequencies --    100.3712               148.2630               173.4718
 Red. masses --      7.1597                 5.2843                 5.1606
 Frc consts  --      0.0425                 0.0684                 0.0915
 IR Inten    --      0.7293                 3.2871                 0.0865

                      7                      8                      9
                      A                      A                      A
 Frequencies --    198.9563               256.6363               264.0143
 Red. masses --      5.4082                 1.5111                 4.2625
 Frc consts  --      0.1261                 0.0586                 0.1751
 IR Inten    --      3.2462                 0.0277                 1.5032

                     10                     11                     12
                      A                      A                      A
 Frequencies --    280.2240               330.2269               339.1115
 Red. masses --      2.7755                 6.0554                 7.0460
 Frc consts  --      0.1284                 0.3891                 0.4774
 IR Inten    --      0.4231                 4.3656                 6.7310

                     13                     14                     15
                      A                      A                      A
 Frequencies --    398.7740               424.0832               439.6971
 Red. masses --      6.2300                 8.1912                 3.1608
 Frc consts  --      0.5837                 0.8680                 0.3600
 IR Inten    --      0.1537                 4.3777                 0.1741

                     16                     17                     18
                      A                      A                      A
 Frequencies --    490.1933               514.2869               523.5588
 Red. masses --      8.8766                 1.5707                 5.2662
 Frc consts  --      1.2567                 0.2448                 0.8505
 IR Inten    --      1.5480                13.7654                39.3700

                     19                     20                     21
                      A                      A                      A
 Frequencies --    563.6094               604.9553               610.2705
 Red. masses --      1.1874                 5.0958                 4.1829
 Frc consts  --      0.2222                 1.0988                 0.9178
 IR Inten    --    151.5390                18.4210                 5.3182

                     22                     23                     24
                      A                      A                      A
 Frequencies --    613.2656               633.7440               688.5757
 Red. masses --      3.2923                 2.2266                 4.8763
 Frc consts  --      0.7295                 0.5269                 1.3622
 IR Inten    --      2.1873                 7.1660                41.7019

                     25                     26                     27
                      A                      A                      A
 Frequencies --    707.9548               726.7992               734.6636
 Red. masses --      5.5756                 5.4333                 5.9650
 Frc consts  --      1.6465                 1.6910                 1.8969
 IR Inten    --      0.5951                 5.5450                 7.5686

                     28                     29                     30
                      A                      A                      A
 Frequencies --    755.9216               773.6850               806.4727
 Red. masses --      6.0556                 6.3195                 1.4819
 Frc consts  --      2.0387                 2.2287                 0.5679
 IR Inten    --     54.7509                29.1726                24.4333

                     31                     32                     33
                      A                      A                      A
 Frequencies --    818.1801               822.4082               858.4651
 Red. masses --      6.7273                 1.4414                 1.4483
 Frc consts  --      2.6533                 0.5744                 0.6289
 IR Inten    --      6.4131                24.8415                27.6369

                     34                     35                     36
                      A                      A                      A
 Frequencies --    898.6501               919.8465               989.1795
 Red. masses --      5.4010                 1.2811                 6.9801
 Frc consts  --      2.5699                 0.6387                 4.0240
 IR Inten    --     13.3834                 0.5606                 5.9759

                     37                     38                     39
                      A                      A                      A
 Frequencies --   1033.5910              1078.5437              1117.8477
 Red. masses --      2.6991                 4.2559                 2.1146
 Frc consts  --      1.6989                 2.9169                 1.5568
 IR Inten    --     28.1286                27.1876                26.8584

                     40                     41                     42
                      A                      A                      A
 Frequencies --   1152.8019              1175.7265              1186.0197
 Red. masses --      1.6264                 4.9653                 1.8396
 Frc consts  --      1.2734                 4.0440                 1.5246
 IR Inten    --      8.2311                53.9605               635.5422

                     43                     44                     45
                      A                      A                      A
 Frequencies --   1186.6041              1219.6632              1222.3293
 Red. masses --      1.2699                 1.4457                 2.2904
 Frc consts  --      1.0535                 1.2671                 2.0162
 IR Inten    --      0.8176                11.5198                70.9390

                     46                     47                     48
                      A                      A                      A
 Frequencies --   1253.0329              1280.2057              1317.1383
 Red. masses --      1.5347                 2.8420                 1.8939
 Frc consts  --      1.4197                 2.7443                 1.9358
 IR Inten    --    381.8412                 4.9418                77.1396

                     49                     50                     51
                      A                      A                      A
 Frequencies --   1363.9348              1382.6564              1428.1451
 Red. masses --      2.6732                 5.9772                 7.0260
 Frc consts  --      2.9300                 6.7325                 8.4432
 IR Inten    --     68.3271                33.8702                27.5562

                     52                     53                     54
                      A                      A                      A
 Frequencies --   1462.0476              1476.2014              1496.9091
 Red. masses --      4.3133                 3.5414                 2.0538
 Frc consts  --      5.4323                 4.5469                 2.7114
 IR Inten    --    145.3933               108.2998               171.6025

                     55                     56                     57
                      A                      A                      A
 Frequencies --   1507.1056              1521.5458              1527.5263
 Red. masses --      2.6074                 1.0478                 2.2173
 Frc consts  --      3.4893                 1.4293                 3.0483
 IR Inten    --     10.3047                 5.4736               275.3774

                     58                     59                     60
                      A                      A                      A
 Frequencies --   1539.9073              1587.9030              1603.7516
 Red. masses --      1.2687                 5.4951                 5.9176
 Frc consts  --      1.7726                 8.1635                 8.9675
 IR Inten    --      7.8175                63.2241                29.8539

                     61                     62                     63
                      A                      A                      A
 Frequencies --   1648.0617              1692.6773              1795.1542
 Red. masses --      7.1405                 7.8797                 9.2408
 Frc consts  --     11.4269                13.3017                17.5455
 IR Inten    --     26.2262                55.1079               523.8831

                     64                     65                     66
                      A                      A                      A
 Frequencies --   3023.4427              3081.3249              3158.6246
 Red. masses --      1.0350                 1.1066                 1.0994
 Frc consts  --      5.5744                 6.1904                 6.4624
 IR Inten    --     66.1299                45.5866                29.0515

                     67                     68                     69
                      A                      A                      A
 Frequencies --   3220.7454              3222.6439              3240.3011
 Red. masses --      1.0898                 1.0911                 1.0922
 Frc consts  --      6.6604                 6.6765                 6.7564
 IR Inten    --      6.1677                 0.5885                 7.4259

                     70                     71                     72
                      A                      A                      A
 Frequencies --   3300.0112              3656.8998              3704.1111
 Red. masses --      1.0972                 1.0804                 1.0641
 Frc consts  --      7.0399                 8.5127                 8.6023
 IR Inten    --      0.4341                95.2351               112.2104

 - Thermochemistry -
 -------------------
 Temperature   298.150 Kelvin.  Pressure   1.00000 Atm.
 Atom     1 has atomic number  6 and mass  12.00000

 Molecular mass:   231.05316 amu.
 Principal axes and moments of inertia in atomic units:
                           1         2         3
     Eigenvalues --  1249.807668500.095119738.38072
           X            0.99999  -0.00471  -0.00000
           Y            0.00471   0.99999   0.00000
           Z            0.00000  -0.00000   1.00000
 This molecule is an asymmetric top.
 Rotational symmetry number  1.
 Warning -- assumption of classical behavior for rotation
           may cause significant error
 Rotational temperatures (Kelvin)      0.06930     0.01019     0.00889
 Rotational constants (GHZ):           1.44402     0.21232     0.18532
 Zero-point vibrational energy     511346.0 (Joules/Mol)
                                  122.21463 (Kcal/Mol)
 Warning -- explicit consideration of  22 degrees of freedom as
           vibrations may cause significant error
 Vibrational temperatures:     71.65   116.93   123.24   144.41   213.32
          (Kelvin)            249.59   286.25   369.24   379.86   403.18
                              475.12   487.91   573.75   610.16   632.63
                              705.28   739.94   753.28   810.91   870.40
                              878.04   882.35   911.82   990.71  1018.59
                             1045.70  1057.02  1087.60  1113.16  1160.33
                             1177.18  1183.26  1235.14  1292.96  1323.45
                             1423.21  1487.11  1551.78  1608.33  1658.62
                             1691.61  1706.42  1707.26  1754.82  1758.66
                             1802.83  1841.93  1895.07  1962.40  1989.33
                             2054.78  2103.56  2123.92  2153.72  2168.39
                             2189.17  2197.77  2215.58  2284.64  2307.44
                             2371.19  2435.39  2582.83  4350.06  4433.34
                             4544.56  4633.93  4636.67  4662.07  4747.98
                             5261.46  5329.39

 Zero-point correction=                           0.194761 (Hartree/Particle)
 Thermal correction to Energy=                    0.208295
 Thermal correction to Enthalpy=                  0.209239
 Thermal correction to Gibbs Free Energy=         0.154153
 Sum of electronic and zero-point Energies=           -818.184126
 Sum of electronic and thermal Energies=              -818.170592
 Sum of electronic and thermal Enthalpies=            -818.169648
 Sum of electronic and thermal Free Energies=         -818.224734

                     E (Thermal)             CV                S
                      KCal/Mol        Cal/Mol-Kelvin    Cal/Mol-Kelvin
 Total                  130.707             53.049            115.939
 Electronic               0.000              0.000              0.000
 Translational            0.889              2.981             42.214
 Rotational               0.889              2.981             33.003
 Vibrational            128.930             47.087             40.721
 Vibration     1          0.595              1.978              4.825
 Vibration     2          0.600              1.962              3.860
 Vibration     3          0.601              1.959              3.757
 Vibration     4          0.604              1.949              3.447
 Vibration     5          0.618              1.905              2.694
 Vibration     6          0.627              1.875              2.398
 Vibration     7          0.637              1.841              2.143
 Vibration     8          0.666              1.752              1.685
 Vibration     9          0.671              1.739              1.635
 Vibration    10          0.680              1.710              1.532
 Vibration    11          0.713              1.615              1.259
 Vibration    12          0.719              1.597              1.216
 Vibration    13          0.765              1.473              0.967
 Vibration    14          0.786              1.418              0.878
 Vibration    15          0.800              1.384              0.828
 Vibration    16          0.846              1.272              0.683
 Vibration    17          0.869              1.218              0.623
 Vibration    18          0.879              1.198              0.602
 Vibration    19          0.919              1.110              0.517
 Vibration    20          0.964              1.021              0.441
 Vibration    21          0.969              1.010              0.432
 Vibration    22          0.973              1.004              0.427

 Optimization completed.
    -- Stationary point found.
 Normal termination of Gaussian 16 at Sun Dec 13 16:09:25 2020.

 ----------------------------------------------------------------------
 # B3LYP/6-311++G(d,p) empiricaldispersion=gd3bj scf=xqc pop=npa geom=c
 heck
 ----------------------------------------------------------------------

 ---------------------------------------
 CID_115007557_JID_7686_Energie_neutraal
 ---------------------------------------
 Structure from the checkpoint file:  "JID_7686.chk"
 Charge =  0 Multiplicity = 1

 SCF Done:  E(RB3LYP) =  -818.610353357     A.U. after   16 cycles
 Normal termination of Gaussian 16 at Sun Dec 13 16:13:10 2020.

 ----------------------------------------------------------------------
 # B3LYP/6-311++G(d,p) empiricaldispersion=gd3bj scf=xqc pop=npa geom=c
 heck
 ----------------------------------------------------------------------

 -------------------------------------
 CID_115007557_JID_7686_Energie_kation
 -------------------------------------
 Structure from the checkpoint file:  "JID_7686.chk"
 Charge =  1 Multiplicity = 2

 SCF Done:  E(UB3LYP) =  -818.329982802     A.U. after   26 cycles
 Normal termination of Gaussian 16 at Sun Dec 13 16:21:38 2020.
 Gaussian 16:  ES64L-G16RevA.03 25-Dec-2016

 ----------------------------------------------------------------------
 # B3LYP/6-311++G(d,p) empiricaldispersion=gd3bj scf=xqc pop=npa geom=c
 heck
 ----------------------------------------------------------------------

 ------------------------------------
 CID_115007557_JID_7686_Energie_anion
 ------------------------------------
 Structure from the checkpoint file:  "JID_7686.chk"
 Charge = -1 Multiplicity = 2

                         Standard orientation:
 ---------------------------------------------------------------------
 Center     Atomic      Atomic             Coordinates (Angstroms)
 Number     Number       Type             X           Y           Z
 ---------------------------------------------------------------------
      1          6           0        5.464345   -1.099499   -0.000263
      2          8           0        4.106672   -1.503784    0.000122
      3          6           0        3.144056   -0.532012    0.000089
      4          6           0        1.825517   -1.000083    0.000174
      5          6           0        0.786357   -0.069949    0.000110
      6          6           0        1.088575    1.321478    0.000009
      7          6           0        2.387626    1.788883   -0.000044
      8          6           0        3.422875    0.847266   -0.000023
      9          8           0       -0.048974    2.116874    0.000001
     10          6           0       -1.092656    1.225826    0.000084
     11          6           0       -0.648388   -0.096285    0.000174
     12          7           0       -1.751666   -0.895112    0.000122
     13          6           0       -2.878072   -0.085392    0.000004
     14          6           0       -2.493340    1.262412   -0.000100
     15          6           0       -4.176304   -0.731694   -0.000046
     16          8           0       -4.334566   -1.943144   -0.000135
     17          8           0       -5.209504    0.146926   -0.000039
     18          1           0        6.050625   -2.019949   -0.000390
     19          1           0        5.711702   -0.512403    0.894286
     20          1           0        5.711244   -0.512455   -0.894972
     21          1           0        1.646281   -2.069574    0.000241
     22          1           0        2.597515    2.852903   -0.000127
     23          1           0        4.446420    1.200088   -0.000085
     24          1           0       -1.814498   -1.902915   -0.000151
     25          1           0       -3.163102    2.108179   -0.000103
     26          1           0       -6.017100   -0.398762   -0.000163
 ---------------------------------------------------------------------

 SCF Done:  E(UB3LYP) =  -818.622224318     A.U. after   22 cycles

 The electronic state is 2-A.
 Alpha  occ. eigenvalues --  -19.04580 -19.04259 -19.02566 -18.94996 -14.21188
 Alpha  occ. eigenvalues --  -10.13405 -10.13033 -10.10601 -10.09556 -10.08011
 Alpha  occ. eigenvalues --  -10.05787 -10.05496 -10.05001 -10.04527 -10.03959
 Alpha  occ. eigenvalues --  -10.03274 -10.02911  -0.96747  -0.96048  -0.95800
 Alpha  occ. eigenvalues --   -0.86748  -0.83903  -0.72617  -0.65585  -0.64805
 Alpha  occ. eigenvalues --   -0.63864  -0.59518  -0.58399  -0.53361  -0.49028
 Alpha  occ. eigenvalues --   -0.47579  -0.44997  -0.44506  -0.42674  -0.38892
 Alpha  occ. eigenvalues --   -0.37398  -0.37032  -0.36080  -0.34221  -0.33170
 Alpha  occ. eigenvalues --   -0.32700  -0.32497  -0.30885  -0.30739  -0.29878
 Alpha  occ. eigenvalues --   -0.28878  -0.27094  -0.26013  -0.25595  -0.25349
 Alpha  occ. eigenvalues --   -0.24707  -0.23054  -0.20831  -0.19911  -0.18576
 Alpha  occ. eigenvalues --   -0.15201  -0.13874  -0.12220  -0.08820  -0.07276
 Alpha  occ. eigenvalues --    0.04383
 Alpha virt. eigenvalues --    0.06672   0.09006   0.09074   0.10125   0.10644
 Alpha virt. eigenvalues --    0.10944   0.11526   0.11691   0.12587   0.13658
 Alpha virt. eigenvalues --    0.14078   0.14965   0.15911   0.16053   0.16611

  Beta  occ. eigenvalues --  -19.04572 -19.04272 -19.02483 -18.94688 -14.20933
  Beta  occ. eigenvalues --  -10.13099 -10.13029 -10.10680 -10.09577 -10.08068
  Beta  occ. eigenvalues --  -10.05705 -10.05350 -10.04913 -10.04430 -10.03755
  Beta  occ. eigenvalues --  -10.03037 -10.02793  -0.96741  -0.95827  -0.95714
  Beta  occ. eigenvalues --   -0.86282  -0.83527  -0.72371  -0.65247  -0.64615
  Beta  occ. eigenvalues --   -0.63598  -0.59034  -0.58217  -0.52773  -0.48959
  Beta  occ. eigenvalues --   -0.47345  -0.44773  -0.44369  -0.42547  -0.38822
  Beta  occ. eigenvalues --   -0.37201  -0.37033  -0.35925  -0.33873  -0.32783
  Beta  occ. eigenvalues --   -0.32546  -0.32346  -0.30574  -0.29766  -0.29640
  Beta  occ. eigenvalues --   -0.28714  -0.26975  -0.25652  -0.25402  -0.24678
  Beta  occ. eigenvalues --   -0.24567  -0.23008  -0.20748  -0.19512  -0.17262
  Beta  occ. eigenvalues --   -0.13928  -0.13572  -0.11281  -0.08054  -0.05994
  Beta virt. eigenvalues --    0.06643   0.08975   0.09066   0.09545   0.10098
  Beta virt. eigenvalues --    0.10646   0.10918   0.11660   0.12563   0.12803
  Beta virt. eigenvalues --    0.13622   0.14738   0.14958   0.15879   0.16207

 Mulliken charges and spin densities:
               1          2
     1  C   -0.285839  -0.002082
     2  O   -0.170454   0.000382
     3  C   -0.554440  -0.074924
     4  C   -0.903521   0.226365
     5  C    1.285320   0.022257
     6  C   -0.749058   0.000153
     7  C   -0.637818   0.082716
     8  C    0.179746   0.160375
     9  O   -0.164075   0.005347
    10  C    0.355317  -0.059366
    11  C    0.055746   0.059443
    12  N   -0.165513   0.111587
    13  C   -0.458141   0.050354
    14  C   -0.003306   0.125272
    15  C    0.397611   0.206552
    16  O   -0.454029   0.110196
    17  O   -0.216409   0.016595
    18  H    0.150660  -0.000208
    19  H    0.127308   0.002833
    20  H    0.127326   0.002821
    21  H    0.120863  -0.014454
    22  H    0.138044  -0.006489
    23  H    0.129218  -0.012397
    24  H    0.282713  -0.006975
    25  H    0.161578  -0.005351
    26  H    0.251153  -0.001001
 Sum of Mulliken charges =  -1.00000   1.00000

 Dipole moment (field-independent basis, Debye):
    X=              5.5187    Y=              0.6404    Z=             -0.0008  Tot=              5.5558
 Quadrupole moment (field-independent basis, Debye-Ang):
   XX=           -140.3590   YY=           -115.5536   ZZ=           -106.8629
   XY=             -7.7303   XZ=             -0.0022   YZ=              0.0008

 Summary of Natural Population Analysis:

                                       Natural Population
                Natural  -----------------------------------------------
    Atom  No    Charge         Core      Valence    Rydberg      Total
 -----------------------------------------------------------------------
      C    1   -0.09901      0.99961     2.09103    0.00837     3.09901
      O    2   -0.28303      0.99985     3.27218    0.01100     4.28303
      C    3    0.13209      0.99941     1.85695    0.01155     2.86791
      C    4   -0.07467      0.99941     2.06563    0.00962     3.07467
      C    5   -0.03719      0.99937     2.03003    0.00779     3.03719
      C    6    0.14919      0.99936     1.83863    0.01282     2.85081
      C    7   -0.10827      0.99953     2.09985    0.00890     3.10827
      C    8   -0.11852      0.99954     2.11072    0.00825     3.11852
      O    9   -0.25169      0.99985     3.24334    0.00850     4.25169
      C   10    0.11767      0.99929     1.86994    0.01310     2.88233
      C   11    0.05315      0.99942     1.93651    0.01092     2.94685
      N   12   -0.22174      0.99963     2.71472    0.00739     3.72174
      C   13    0.04871      0.99953     1.93939    0.01238     2.95129
      C   14   -0.13212      0.99950     2.12422    0.00839     3.13212
      C   15    0.41463      0.99962     1.56219    0.02356     2.58537
      O   16   -0.31679      0.99988     3.30889    0.00802     4.31679
      O   17   -0.34876      0.99988     3.34303    0.00585     4.34876
      H   18    0.08610      0.00000     0.41307    0.00084     0.41390
      H   19    0.07989      0.00000     0.41834    0.00176     0.42011
      H   20    0.07990      0.00000     0.41834    0.00176     0.42010
      H   21    0.10119      0.00000     0.39821    0.00060     0.39881
      H   22    0.09751      0.00000     0.40090    0.00159     0.40249
      H   23    0.09247      0.00000     0.40642    0.00111     0.40753
      H   24    0.20370      0.00000     0.29443    0.00187     0.29630
      H   25    0.10611      0.00000     0.39296    0.00093     0.39389
      H   26    0.22955      0.00000     0.26721    0.00325     0.27045
 =======================================================================
   * Total *    0.00006     16.99269    42.81712    0.19012    59.99994

 Normal termination of Gaussian 16 at Sun Dec 13 16:28:30 2020.
