 Gaussian 16, Revision A.03,

 -----------------------------------------------------------
 # opt freq B3LYP/6-31G(d) empiricaldispersion=gd3bj scf=xqc
 -----------------------------------------------------------

 -------------------------------
 CID_145536002_JID_7854_neutraal
 -------------------------------
 Symbolic Z-matrix:
 Charge =  0 Multiplicity = 1

 SCF Done:  E(RB3LYP) =  -675.973795834     A.U. after   14 cycles
 SCF Done:  E(RB3LYP) =  -675.980265785     A.U. after   12 cycles
 SCF Done:  E(RB3LYP) =  -675.981855453     A.U. after   12 cycles
 SCF Done:  E(RB3LYP) =  -675.982753393     A.U. after   12 cycles
 SCF Done:  E(RB3LYP) =  -675.983172943     A.U. after   12 cycles
 SCF Done:  E(RB3LYP) =  -675.983346420     A.U. after   11 cycles
 SCF Done:  E(RB3LYP) =  -675.983370576     A.U. after   10 cycles
 SCF Done:  E(RB3LYP) =  -675.983395410     A.U. after   10 cycles
 SCF Done:  E(RB3LYP) =  -675.983412048     A.U. after    9 cycles
 SCF Done:  E(RB3LYP) =  -675.983431355     A.U. after   10 cycles
 SCF Done:  E(RB3LYP) =  -675.983530716     A.U. after    8 cycles
 SCF Done:  E(RB3LYP) =  -675.983532201     A.U. after    8 cycles
 SCF Done:  E(RB3LYP) =  -675.983534269     A.U. after    9 cycles
 SCF Done:  E(RB3LYP) =  -675.983535656     A.U. after    9 cycles
 SCF Done:  E(RB3LYP) =  -675.983535935     A.U. after    7 cycles
 Optimization completed.
    -- Stationary point found.
 Normal termination of Gaussian 16 at Fri Dec 11 13:24:33 2020.

 --------------------------------------------------------------------
 #N Geom=AllCheck Guess=TCheck SCRF=Check GenChk RB3LYP/6-31G(d) Freq
 --------------------------------------------------------------------

 Structure from the checkpoint file:  "JID_7854.chk"
 -------------------------------
 CID_145536002_JID_7854_neutraal
 -------------------------------
 Charge =  0 Multiplicity = 1

 SCF Done:  E(RB3LYP) =  -675.983535935     A.U. after    1 cycles

  Exact polarizability: 299.425  13.313 166.237  10.615  -0.365  94.595
 Approx polarizability: 400.919  34.265 293.980  22.964   0.815 143.691

                      1                      2                      3
                      A                      A                      A
 Frequencies --     29.1844                41.9255                61.3265
 Red. masses --      3.2981                 3.6850                 1.0751
 Frc consts  --      0.0017                 0.0038                 0.0024
 IR Inten    --      0.4098                 0.3757                 0.1018

                      4                      5                      6
                      A                      A                      A
 Frequencies --     95.7751               102.2104               166.7235
 Red. masses --      3.5190                 3.6945                 3.5393
 Frc consts  --      0.0190                 0.0227                 0.0580
 IR Inten    --      0.9257                 0.6172                 0.1604

                      7                      8                      9
                      A                      A                      A
 Frequencies --    191.7828               222.8516               237.7114
 Red. masses --      1.8005                 3.6211                 1.3740
 Frc consts  --      0.0390                 0.1060                 0.0457
 IR Inten    --      0.6620                 0.4508                 1.0705

                     10                     11                     12
                      A                      A                      A
 Frequencies --    265.2760               274.7649               299.7567
 Red. masses --      2.7061                 4.2701                 3.2149
 Frc consts  --      0.1122                 0.1899                 0.1702
 IR Inten    --      2.5151                 0.1968                 0.6696

                     13                     14                     15
                      A                      A                      A
 Frequencies --    350.8443               358.5771               365.6665
 Red. masses --      4.1302                 2.1014                 1.7999
 Frc consts  --      0.2995                 0.1592                 0.1418
 IR Inten    --      2.9512                 0.2227                40.4038

                     16                     17                     18
                      A                      A                      A
 Frequencies --    378.6939               397.3041               435.9139
 Red. masses --      1.8429                 1.7870                 2.9351
 Frc consts  --      0.1557                 0.1662                 0.3286
 IR Inten    --      6.8751                20.8149                 1.1128

                     19                     20                     21
                      A                      A                      A
 Frequencies --    486.4906               494.6445               528.9783
 Red. masses --      2.7128                 4.7429                 3.5722
 Frc consts  --      0.3783                 0.6837                 0.5889
 IR Inten    --     12.2169                 1.3649                 3.8731

                     22                     23                     24
                      A                      A                      A
 Frequencies --    542.8713               600.4649               608.6103
 Red. masses --      3.6894                 3.1754                 4.6412
 Frc consts  --      0.6406                 0.6746                 1.0129
 IR Inten    --      4.1005                 2.6792                 3.0191

                     25                     26                     27
                      A                      A                      A
 Frequencies --    647.3751               674.0842               752.3863
 Red. masses --      3.9987                 3.0986                 2.1042
 Frc consts  --      0.9874                 0.8295                 0.7018
 IR Inten    --      1.2953                 1.4096                10.5009

                     28                     29                     30
                      A                      A                      A
 Frequencies --    768.2842               776.7076               786.1459
 Red. masses --      3.5474                 2.9048                 3.0392
 Frc consts  --      1.2337                 1.0325                 1.1067
 IR Inten    --      0.2501                 3.1170                 3.0146

                     31                     32                     33
                      A                      A                      A
 Frequencies --    804.1912               806.7093               834.6514
 Red. masses --      1.3987                 1.8305                 2.0788
 Frc consts  --      0.5330                 0.7019                 0.8532
 IR Inten    --     43.8585                 4.3695                 1.6172

                     34                     35                     36
                      A                      A                      A
 Frequencies --    842.4855               890.9242               912.1070
 Red. masses --      2.0488                 1.4326                 2.1904
 Frc consts  --      0.8568                 0.6700                 1.0736
 IR Inten    --      1.2276                 8.4381                 2.2635

                     37                     38                     39
                      A                      A                      A
 Frequencies --    917.7499               919.7118               926.9012
 Red. masses --      2.0395                 3.0739                 1.2569
 Frc consts  --      1.0121                 1.5319                 0.6362
 IR Inten    --      0.5450                 1.5096                 0.0063

                     40                     41                     42
                      A                      A                      A
 Frequencies --    962.6225               970.2998               989.0932
 Red. masses --      2.7917                 1.7865                 1.9294
 Frc consts  --      1.5242                 0.9910                 1.1121
 IR Inten    --      0.0827                 0.4389                 0.5963

                     43                     44                     45
                      A                      A                      A
 Frequencies --   1015.0910              1034.1285              1043.1149
 Red. masses --      2.5560                 1.4959                 1.8339
 Frc consts  --      1.5517                 0.9425                 1.1757
 IR Inten    --      1.3543                10.8513                 2.7026

                     46                     47                     48
                      A                      A                      A
 Frequencies --   1075.8098              1078.9633              1095.6341
 Red. masses --      1.4841                 2.1983                 1.5925
 Frc consts  --      1.0120                 1.5078                 1.1263
 IR Inten    --      3.5289                 2.5233                12.0941

                     49                     50                     51
                      A                      A                      A
 Frequencies --   1129.4072              1142.2066              1168.7787
 Red. masses --      1.8511                 1.3554                 1.3695
 Frc consts  --      1.3912                 1.0418                 1.1022
 IR Inten    --      2.9420                 1.4600                 2.3166

                     52                     53                     54
                      A                      A                      A
 Frequencies --   1176.8029              1203.0295              1229.4593
 Red. masses --      1.7663                 1.1680                 2.0471
 Frc consts  --      1.4412                 0.9960                 1.8231
 IR Inten    --      3.3866                 1.1353                29.1313

                     55                     56                     57
                      A                      A                      A
 Frequencies --   1248.9285              1264.2920              1270.9017
 Red. masses --      1.3988                 1.8146                 1.7581
 Frc consts  --      1.2856                 1.7090                 1.6730
 IR Inten    --      3.3437                 4.4886                17.3719

                     58                     59                     60
                      A                      A                      A
 Frequencies --   1277.7235              1329.3409              1339.7463
 Red. masses --      1.2823                 1.7912                 2.1887
 Frc consts  --      1.2334                 1.8650                 2.3147
 IR Inten    --      1.3381                 4.9880                11.3396

                     61                     62                     63
                      A                      A                      A
 Frequencies --   1355.5319              1368.0270              1380.1066
 Red. masses --      1.9839                 1.6899                 2.3817
 Frc consts  --      2.1478                 1.8633                 2.6728
 IR Inten    --     31.5099                 4.5251                36.4336

                     64                     65                     66
                      A                      A                      A
 Frequencies --   1388.9271              1401.9405              1405.6635
 Red. masses --      1.6061                 1.7245                 1.4495
 Frc consts  --      1.8256                 1.9970                 1.6875
 IR Inten    --      7.7271                13.4461                 2.0494

                     67                     68                     69
                      A                      A                      A
 Frequencies --   1430.7459              1442.2475              1443.0101
 Red. masses --      2.4143                 1.2885                 1.2537
 Frc consts  --      2.9119                 1.5791                 1.5380
 IR Inten    --      5.9742                14.2195                 1.0775

                     70                     71                     72
                      A                      A                      A
 Frequencies --   1459.1104              1496.4844              1503.9134
 Red. masses --      3.2508                 2.6040                 1.1241
 Frc consts  --      4.0777                 3.4359                 1.4979
 IR Inten    --     14.3828                 7.8546                 2.8950

                     73                     74                     75
                      A                      A                      A
 Frequencies --   1508.1693              1513.0960              1515.0578
 Red. masses --      1.0934                 1.8857                 1.0449
 Frc consts  --      1.4653                 2.5436                 1.4131
 IR Inten    --      5.2479                10.6512                 4.7079

                     76                     77                     78
                      A                      A                      A
 Frequencies --   1521.1856              1532.2580              1540.0202
 Red. masses --      1.0727                 1.0752                 1.0614
 Frc consts  --      1.4626                 1.4873                 1.4831
 IR Inten    --      2.0557                 2.5304                 1.8305

                     79                     80                     81
                      A                      A                      A
 Frequencies --   1544.1047              1589.8080              1638.7424
 Red. masses --      1.7034                 4.6761                 5.2278
 Frc consts  --      2.3928                 6.9634                 8.2715
 IR Inten    --      6.1896                 0.5959                 6.3498

                     82                     83                     84
                      A                      A                      A
 Frequencies --   1681.8218              1714.9196              3001.2586
 Red. masses --      6.6216                 6.3969                 1.0678
 Frc consts  --     11.0350                11.0843                 5.6670
 IR Inten    --      1.0305                 2.3651                39.6235

                     85                     86                     87
                      A                      A                      A
 Frequencies --   3031.9683              3034.9112              3037.6411
 Red. masses --      1.0739                 1.0661                 1.0393
 Frc consts  --      5.8166                 5.7853                 5.6504
 IR Inten    --     19.0437                 7.8898                68.5602

                     88                     89                     90
                      A                      A                      A
 Frequencies --   3037.9219              3043.9928              3049.1333
 Red. masses --      1.0897                 1.0627                 1.0492
 Frc consts  --      5.9253                 5.8014                 5.7472
 IR Inten    --     21.3656                80.9131                43.4439

                     91                     92                     93
                      A                      A                      A
 Frequencies --   3072.8634              3082.3980              3086.5457
 Red. masses --      1.0920                 1.1040                 1.1010
 Frc consts  --      6.0752                 6.1799                 6.1797
 IR Inten    --     25.5171                50.8145                26.9502

                     94                     95                     96
                      A                      A                      A
 Frequencies --   3109.5935              3121.1771              3121.4444
 Red. masses --      1.1024                 1.1013                 1.1002
 Frc consts  --      6.2806                 6.3209                 6.3157
 IR Inten    --     30.9432                48.9471                18.9863

                     97                     98                     99
                      A                      A                      A
 Frequencies --   3150.1531              3175.6389              3180.4534
 Red. masses --      1.0881                 1.0867                 1.0901
 Frc consts  --      6.3617                 6.4566                 6.4967
 IR Inten    --     35.2648                 7.4749                24.6899

                    100                    101                    102
                      A                      A                      A
 Frequencies --   3195.0003              3268.7806              3672.3606
 Red. masses --      1.0947                 1.0949                 1.0789
 Frc consts  --      6.5838                 6.8925                 8.5725
 IR Inten    --     26.3214                 7.0817                34.4915

 - Thermochemistry -
 -------------------
 Temperature   298.150 Kelvin.  Pressure   1.00000 Atm.
 Atom     1 has atomic number  6 and mass  12.00000

 Molecular mass:   225.15175 amu.
 Principal axes and moments of inertia in atomic units:
                           1         2         3
     Eigenvalues --  1119.712709324.914869985.13780
           X            0.99999   0.00247  -0.00245
           Y           -0.00247   1.00000  -0.00112
           Z            0.00245   0.00112   1.00000
 This molecule is an asymmetric top.
 Rotational symmetry number  1.
 Warning -- assumption of classical behavior for rotation
           may cause significant error
 Rotational temperatures (Kelvin)      0.07735     0.00929     0.00867
 Rotational constants (GHZ):           1.61179     0.19354     0.18074
 Zero-point vibrational energy     823582.6 (Joules/Mol)
                                  196.84098 (Kcal/Mol)
 Warning -- explicit consideration of  24 degrees of freedom as
           vibrations may cause significant error
 Vibrational temperatures:     41.99    60.32    88.24   137.80   147.06
          (Kelvin)            239.88   275.93   320.63   342.01   381.67
                              395.33   431.28   504.79   515.91   526.11
                              544.86   571.63   627.18   699.95   711.68
                              761.08   781.07   863.94   875.65   931.43
                              969.86  1082.52  1105.39  1117.51  1131.09
                             1157.05  1160.67  1200.88  1212.15  1281.84
                             1312.32  1320.44  1323.26  1333.60  1385.00
                             1396.05  1423.08  1460.49  1487.88  1500.81
                             1547.85  1552.39  1576.37  1624.97  1643.38
                             1681.61  1693.16  1730.89  1768.92  1796.93
                             1819.03  1828.54  1838.36  1912.63  1927.60
                             1950.31  1968.29  1985.67  1998.36  2017.08
                             2022.44  2058.52  2075.07  2076.17  2099.33
                             2153.11  2163.80  2169.92  2177.01  2179.83
                             2188.65  2204.58  2215.75  2221.62  2287.38
                             2357.78  2419.77  2467.39  4318.14  4362.33
                             4366.56  4370.49  4370.89  4379.63  4387.02
                             4421.17  4434.88  4440.85  4474.01  4490.68
                             4491.06  4532.37  4569.04  4575.96  4596.89
                             4703.05  5283.71

 Zero-point correction=                           0.313686 (Hartree/Particle)
 Thermal correction to Energy=                    0.329004
 Thermal correction to Enthalpy=                  0.329948
 Thermal correction to Gibbs Free Energy=         0.270636
 Sum of electronic and zero-point Energies=           -675.669850
 Sum of electronic and thermal Energies=              -675.654532
 Sum of electronic and thermal Enthalpies=            -675.653588
 Sum of electronic and thermal Free Energies=         -675.712899

                     E (Thermal)             CV                S
                      KCal/Mol        Cal/Mol-Kelvin    Cal/Mol-Kelvin
 Total                  206.453             60.973            124.832
 Electronic               0.000              0.000              0.000
 Translational            0.889              2.981             42.137
 Rotational               0.889              2.981             33.011
 Vibrational            204.676             55.011             49.684
 Vibration     1          0.593              1.984              5.884
 Vibration     2          0.595              1.980              5.166
 Vibration     3          0.597              1.973              4.414
 Vibration     4          0.603              1.952              3.539
 Vibration     5          0.604              1.947              3.412
 Vibration     6          0.624              1.883              2.472
 Vibration     7          0.634              1.851              2.211
 Vibration     8          0.649              1.806              1.936
 Vibration     9          0.656              1.783              1.820
 Vibration    10          0.671              1.737              1.627
 Vibration    11          0.677              1.720              1.566
 Vibration    12          0.692              1.674              1.418
 Vibration    13          0.728              1.574              1.162
 Vibration    14          0.733              1.558              1.128
 Vibration    15          0.739              1.543              1.098
 Vibration    16          0.749              1.516              1.044
 Vibration    17          0.764              1.476              0.973
 Vibration    18          0.796              1.392              0.840
 Vibration    19          0.842              1.280              0.693
 Vibration    20          0.850              1.262              0.672
 Vibration    21          0.884              1.186              0.589
 Vibration    22          0.898              1.155              0.559
 Vibration    23          0.959              1.031              0.449
 Vibration    24          0.967              1.014              0.435

 Optimization completed.
    -- Stationary point found.
 Normal termination of Gaussian 16 at Fri Dec 11 13:35:47 2020.

 ----------------------------------------------------------------------
 # B3LYP/6-311++G(d,p) empiricaldispersion=gd3bj scf=xqc pop=npa geom=c
 heck
 ----------------------------------------------------------------------

 ---------------------------------------
 CID_145536002_JID_7854_Energie_neutraal
 ---------------------------------------
 Structure from the checkpoint file:  "JID_7854.chk"
 Charge =  0 Multiplicity = 1

 SCF Done:  E(RB3LYP) =  -676.156801702     A.U. after   14 cycles
 Normal termination of Gaussian 16 at Fri Dec 11 13:40:37 2020.

 ----------------------------------------------------------------------
 # B3LYP/6-311++G(d,p) empiricaldispersion=gd3bj scf=xqc pop=npa geom=c
 heck
 ----------------------------------------------------------------------

 -------------------------------------
 CID_145536002_JID_7854_Energie_kation
 -------------------------------------
 Structure from the checkpoint file:  "JID_7854.chk"
 Charge =  1 Multiplicity = 2

 SCF Done:  E(UB3LYP) =  -675.900167475     A.U. after   23 cycles
 Normal termination of Gaussian 16 at Fri Dec 11 13:50:59 2020.
 Gaussian 16:  ES64L-G16RevA.03 25-Dec-2016

 ----------------------------------------------------------------------
 # B3LYP/6-311++G(d,p) empiricaldispersion=gd3bj scf=xqc pop=npa geom=c
 heck
 ----------------------------------------------------------------------

 ------------------------------------
 CID_145536002_JID_7854_Energie_anion
 ------------------------------------
 Structure from the checkpoint file:  "JID_7854.chk"
 Charge = -1 Multiplicity = 2

                         Standard orientation:
 ---------------------------------------------------------------------
 Center     Atomic      Atomic             Coordinates (Angstroms)
 Number     Number       Type             X           Y           Z
 ---------------------------------------------------------------------
      1          6           0        4.578135    0.002267   -1.572405
      2          6           0        4.576082   -0.061144   -0.039270
      3          6           0        3.864986   -1.317060    0.488699
      4          6           0        2.383627   -1.347539    0.093028
      5          6           0        1.692761   -0.014526    0.297784
      6          6           0        2.400089    1.108448    0.531694
      7          6           0        3.903022    1.178244    0.576452
      8          6           0        0.236762   -0.018173    0.205712
      9          6           0       -0.645675   -1.082575    0.208063
     10          6           0       -1.973129   -0.558885    0.086871
     11          6           0       -1.848639    0.855041    0.002535
     12          7           0       -0.505547    1.155298    0.097443
     13          6           0       -2.962516    1.685458   -0.143639
     14          6           0       -4.211952    1.081757   -0.197734
     15          6           0       -4.375914   -0.321582   -0.106343
     16          6           0       -3.255499   -1.132854    0.036636
     17          6           0       -5.763803   -0.915349   -0.164967
     18          1           0        3.564810    0.125227   -1.969404
     19          1           0        5.002093   -0.911668   -2.004862
     20          1           0        5.176035    0.850157   -1.925853
     21          1           0        5.620220   -0.088543    0.299212
     22          1           0        4.363587   -2.222198    0.121217
     23          1           0        3.944447   -1.332392    1.583815
     24          1           0        2.270306   -1.650421   -0.957165
     25          1           0        1.867169   -2.117817    0.678069
     26          1           0        1.875931    2.042883    0.728891
     27          1           0        4.228844    1.296961    1.622089
     28          1           0        4.242360    2.087789    0.060444
     29          1           0       -0.376436   -2.124058    0.307620
     30          1           0       -0.104399    2.060675   -0.087171
     31          1           0       -2.859093    2.765182   -0.210908
     32          1           0       -5.095675    1.705069   -0.311182
     33          1           0       -3.371965   -2.211796    0.106371
     34          1           0       -5.731829   -2.007006   -0.092558
     35          1           0       -6.394981   -0.545868    0.653319
     36          1           0       -6.272608   -0.658425   -1.102744
 ---------------------------------------------------------------------

 SCF Done:  E(UB3LYP) =  -676.148137292     A.U. after   33 cycles
 SCF Done:  E(UB3LYP) =  -676.148137292     a.u. after    1 cycles

 The electronic state is 2-A.
 Alpha  occ. eigenvalues --  -14.23359 -10.09114 -10.08693 -10.07533 -10.06795
 Alpha  occ. eigenvalues --  -10.06320 -10.06147 -10.05983 -10.05787 -10.05682
 Alpha  occ. eigenvalues --  -10.05651 -10.05574 -10.05552 -10.05511 -10.04970
 Alpha  occ. eigenvalues --  -10.04494 -10.04030  -0.86337  -0.73927  -0.73037
 Alpha  occ. eigenvalues --   -0.67574  -0.66638  -0.65072  -0.63193  -0.60539
 Alpha  occ. eigenvalues --   -0.58603  -0.56633  -0.51521  -0.50582  -0.48820
 Alpha  occ. eigenvalues --   -0.46143  -0.45616  -0.42897  -0.39292  -0.38370
 Alpha  occ. eigenvalues --   -0.35803  -0.35646  -0.34261  -0.33228  -0.32665
 Alpha  occ. eigenvalues --   -0.32538  -0.32282  -0.31146  -0.30371  -0.29328
 Alpha  occ. eigenvalues --   -0.28866  -0.28311  -0.27860  -0.27172  -0.26195
 Alpha  occ. eigenvalues --   -0.24911  -0.24711  -0.22826  -0.22377  -0.21615
 Alpha  occ. eigenvalues --   -0.20401  -0.19676  -0.17385  -0.15083  -0.10699
 Alpha  occ. eigenvalues --   -0.08807   0.04457
 Alpha virt. eigenvalues --    0.06568   0.06710   0.07277   0.08372   0.08574
 Alpha virt. eigenvalues --    0.08647   0.09666   0.09826   0.09987   0.10597
 Alpha virt. eigenvalues --    0.10917   0.11069   0.11652   0.12191   0.12727

  Beta  occ. eigenvalues --  -14.23302 -10.09130 -10.08582 -10.07530 -10.06825
  Beta  occ. eigenvalues --  -10.06304 -10.06078 -10.05984 -10.05755 -10.05676
  Beta  occ. eigenvalues --  -10.05633 -10.05572 -10.05469 -10.05418 -10.04948
  Beta  occ. eigenvalues --  -10.04296 -10.03987  -0.86237  -0.73810  -0.72934
  Beta  occ. eigenvalues --   -0.67419  -0.66556  -0.64967  -0.63032  -0.60380
  Beta  occ. eigenvalues --   -0.58513  -0.56555  -0.51436  -0.50385  -0.48671
  Beta  occ. eigenvalues --   -0.46038  -0.45546  -0.42810  -0.39152  -0.38268
  Beta  occ. eigenvalues --   -0.35726  -0.35579  -0.34190  -0.33130  -0.32629
  Beta  occ. eigenvalues --   -0.32447  -0.32215  -0.30983  -0.30247  -0.29270
  Beta  occ. eigenvalues --   -0.28791  -0.28278  -0.27771  -0.27106  -0.26091
  Beta  occ. eigenvalues --   -0.24834  -0.24654  -0.22777  -0.22062  -0.21500
  Beta  occ. eigenvalues --   -0.20328  -0.19607  -0.16972  -0.14490  -0.10350
  Beta  occ. eigenvalues --   -0.08126
  Beta virt. eigenvalues --    0.06609   0.06919   0.07702   0.08012   0.08656
  Beta virt. eigenvalues --    0.08787   0.08946   0.09656   0.10006   0.10217
  Beta virt. eigenvalues --    0.10967   0.11118   0.11277   0.11849   0.12291

 Mulliken charges and spin densities:
               1          2
     1  C    0.558351  -1.307886
     2  C   -1.110913   1.709806
     3  C    0.707883  -1.470016
     4  C   -1.294414   0.980589
     5  C    0.624223  -0.118480
     6  C   -0.888971   0.762335
     7  C    1.423750  -2.213275
     8  C    0.207969  -0.306778
     9  C    0.168303  -0.208432
    10  C    0.555802  -0.237789
    11  C   -0.731381   0.207935
    12  N    0.045964   0.050485
    13  C   -0.432084   0.029746
    14  C   -0.334253   0.028082
    15  C    0.911164  -0.125870
    16  C   -0.544415   0.055248
    17  C   -0.371815  -0.057399
    18  H   -0.013838   0.171044
    19  H   -0.047994   0.177200
    20  H   -0.124982   0.252600
    21  H   -0.557897   0.763481
    22  H   -0.225713   0.393370
    23  H    0.013902   0.125741
    24  H    0.125713   0.044548
    25  H    0.175267  -0.059095
    26  H   -0.144694   0.250767
    27  H   -0.105735   0.267877
    28  H   -0.204355   0.344255
    29  H    0.051967   0.072657
    30  H    0.030554   0.235500
    31  H   -0.056999   0.162042
    32  H    0.114706   0.004643
    33  H    0.074560   0.006579
    34  H    0.140412  -0.000031
    35  H    0.137000  -0.001581
    36  H    0.122964   0.010104
 Sum of Mulliken charges =  -1.00000   1.00000

 Dipole moment (field-independent basis, Debye):
    X=             -7.2186    Y=             -1.4668    Z=             -0.1216  Tot=              7.3671
 Quadrupole moment (field-independent basis, Debye-Ang):
   XX=           -204.3488   YY=           -127.2910   ZZ=           -128.8920
   XY=             -0.8163   XZ=             -0.8621   YZ=             -0.5993

 Summary of Natural Population Analysis:

                                       Natural Population
                Natural  -----------------------------------------------
    Atom  No    Charge         Core      Valence    Rydberg      Total
 -----------------------------------------------------------------------
      C    1   -0.28537      0.99965     2.28052    0.00520     3.28537
      C    2   -0.10989      0.99961     2.09939    0.01090     3.10989
      C    3   -0.18641      0.99962     2.17643    0.01035     3.18641
      C    4   -0.19657      0.99960     2.18965    0.00731     3.19657
      C    5   -0.03582      0.99945     2.02705    0.00931     3.03582
      C    6   -0.04538      0.99950     2.03634    0.00954     3.04538
      C    7   -0.20461      0.99961     2.19459    0.01041     3.20461
      C    8    0.10490      0.99950     1.88209    0.01350     2.89510
      C    9   -0.13651      0.99948     2.12997    0.00705     3.13651
      C   10   -0.04199      0.99950     2.03424    0.00824     3.04199
      C   11    0.07681      0.99948     1.91279    0.01092     2.92319
      N   12   -0.26833      0.99963     2.76063    0.00807     3.76833
      C   13   -0.10912      0.99953     2.09934    0.01025     3.10912
      C   14   -0.09809      0.99954     2.08924    0.00931     3.09809
      C   15   -0.04334      0.99953     2.03564    0.00817     3.04334
      C   16   -0.08337      0.99949     2.07597    0.00792     3.08337
      C   17   -0.28694      0.99964     2.28283    0.00447     3.28694
      H   18    0.10057      0.00000     0.39825    0.00118     0.39943
      H   19    0.09585      0.00000     0.40307    0.00107     0.40415
      H   20    0.09766      0.00000     0.40127    0.00107     0.40234
      H   21    0.09607      0.00000     0.40134    0.00259     0.40393
      H   22    0.09670      0.00000     0.40238    0.00092     0.40330
      H   23    0.09666      0.00000     0.40207    0.00127     0.40334
      H   24    0.10022      0.00000     0.39845    0.00133     0.39978
      H   25    0.10065      0.00000     0.39805    0.00130     0.39935
      H   26    0.08779      0.00000     0.41099    0.00122     0.41221
      H   27    0.10560      0.00000     0.39269    0.00170     0.39440
      H   28    0.10061      0.00000     0.39828    0.00110     0.39939
      H   29    0.10176      0.00000     0.39731    0.00092     0.39824
      H   30    0.19955      0.00000     0.29812    0.00233     0.30045
      H   31    0.09733      0.00000     0.40171    0.00095     0.40267
      H   32    0.09129      0.00000     0.40778    0.00093     0.40871
      H   33    0.09154      0.00000     0.40715    0.00130     0.40846
      H   34    0.09714      0.00000     0.40205    0.00080     0.40286
      H   35    0.09638      0.00000     0.40254    0.00108     0.40362
      H   36    0.09662      0.00000     0.40231    0.00108     0.40338
 =======================================================================
   * Total *   -0.00000     16.99236    43.83256    0.17508    61.00000

 Normal termination of Gaussian 16 at Fri Dec 11 14:06:23 2020.
