 Gaussian 16, Revision A.03,

 -----------------------------------------------------------
 # opt freq B3LYP/6-31G(d) empiricaldispersion=gd3bj scf=xqc
 -----------------------------------------------------------

 ------------------------------
 CID_80056214_JID_9520_neutraal
 ------------------------------
 Symbolic Z-matrix:
 Charge =  0 Multiplicity = 1

 SCF Done:  E(RB3LYP) =  -1597.03954302     A.U. after   15 cycles
 SCF Done:  E(RB3LYP) =  -1597.04348601     A.U. after   13 cycles
 SCF Done:  E(RB3LYP) =  -1597.04225350     A.U. after   14 cycles
 SCF Done:  E(RB3LYP) =  -1597.04820864     A.U. after   13 cycles
 SCF Done:  E(RB3LYP) =  -1597.04663343     A.U. after   13 cycles
 SCF Done:  E(RB3LYP) =  -1597.04912482     A.U. after   13 cycles
 SCF Done:  E(RB3LYP) =  -1597.05006534     A.U. after   12 cycles
 SCF Done:  E(RB3LYP) =  -1597.04995081     A.U. after   12 cycles
 SCF Done:  E(RB3LYP) =  -1597.05024207     A.U. after   12 cycles
 SCF Done:  E(RB3LYP) =  -1597.05026506     A.U. after   11 cycles
 SCF Done:  E(RB3LYP) =  -1597.05843611     A.U. after   11 cycles
 SCF Done:  E(RB3LYP) =  -1597.05846655     A.U. after   10 cycles
 SCF Done:  E(RB3LYP) =  -1597.05846783     A.U. after    8 cycles
 SCF Done:  E(RB3LYP) =  -1597.05846738     A.U. after    8 cycles
 SCF Done:  E(RB3LYP) =  -1597.05846806     A.U. after    8 cycles
 SCF Done:  E(RB3LYP) =  -1597.05846807     A.U. after    6 cycles
 Optimization completed.
    -- Stationary point found.
 Normal termination of Gaussian 16 at Sat Dec 12 10:33:52 2020.

 --------------------------------------------------------------------
 #N Geom=AllCheck Guess=TCheck SCRF=Check GenChk RB3LYP/6-31G(d) Freq
 --------------------------------------------------------------------

 Structure from the checkpoint file:  "JID_9520.chk"
 ------------------------------
 CID_80056214_JID_9520_neutraal
 ------------------------------
 Charge =  0 Multiplicity = 1

 SCF Done:  E(RB3LYP) =  -1597.05846807     A.U. after    1 cycles

  Exact polarizability: 214.485  18.666 162.217  -5.225   8.671 148.438
 Approx polarizability: 287.875  22.256 252.634 -11.506  21.114 254.806

                      1                      2                      3
                      A                      A                      A
 Frequencies --     29.3107                43.3576                58.4141
 Red. masses --      6.4876                 5.6136                 4.4353
 Frc consts  --      0.0033                 0.0062                 0.0089
 IR Inten    --      0.9517                 3.4098                 1.1594

                      4                      5                      6
                      A                      A                      A
 Frequencies --     85.0917                93.0334               113.5936
 Red. masses --      3.8672                 4.0029                 3.6266
 Frc consts  --      0.0165                 0.0204                 0.0276
 IR Inten    --      1.0091                 7.3751                 5.0360

                      7                      8                      9
                      A                      A                      A
 Frequencies --    123.7785               134.0061               160.4958
 Red. masses --      5.0312                 4.4360                 1.2652
 Frc consts  --      0.0454                 0.0469                 0.0192
 IR Inten    --      7.5690                 5.3862                 5.0366

                     10                     11                     12
                      A                      A                      A
 Frequencies --    181.6947               199.8428               216.5025
 Red. masses --      4.3638                 4.5723                 3.2867
 Frc consts  --      0.0849                 0.1076                 0.0908
 IR Inten    --      0.3062                 2.1194                 4.1054

                     13                     14                     15
                      A                      A                      A
 Frequencies --    231.0157               237.9256               249.2084
 Red. masses --      3.3070                 2.8403                 1.2231
 Frc consts  --      0.1040                 0.0947                 0.0448
 IR Inten    --      5.7781                 2.1832                 0.2617

                     16                     17                     18
                      A                      A                      A
 Frequencies --    257.1144               274.8442               290.9554
 Red. masses --      2.5611                 2.9119                 1.9625
 Frc consts  --      0.0998                 0.1296                 0.0979
 IR Inten    --      4.4412                 1.5993                26.1566

                     19                     20                     21
                      A                      A                      A
 Frequencies --    313.1917               330.0936               357.2614
 Red. masses --      3.1571                 1.6973                 2.9015
 Frc consts  --      0.1825                 0.1090                 0.2182
 IR Inten    --      1.2019                23.4259                 0.1442

                     22                     23                     24
                      A                      A                      A
 Frequencies --    358.9723               393.6998               420.2140
 Red. masses --      2.7422                 2.6814                 5.5613
 Frc consts  --      0.2082                 0.2449                 0.5786
 IR Inten    --      5.8806                 1.3245                 3.1405

                     25                     26                     27
                      A                      A                      A
 Frequencies --    432.4480               472.0682               481.3938
 Red. masses --      4.1145                 4.9406                 2.9374
 Frc consts  --      0.4534                 0.6487                 0.4011
 IR Inten    --     19.7595                16.8007                 0.7043

                     28                     29                     30
                      A                      A                      A
 Frequencies --    485.0678               512.1265               544.0825
 Red. masses --      3.3625                 7.1103                 4.9088
 Frc consts  --      0.4661                 1.0987                 0.8562
 IR Inten    --      0.9642                 2.2679                 1.6735

                     31                     32                     33
                      A                      A                      A
 Frequencies --    576.6775               633.3842               677.9922
 Red. masses --      4.5888                 4.4967                 5.2666
 Frc consts  --      0.8991                 1.0629                 1.4264
 IR Inten    --     16.9309                 4.1468                 3.4248

                     34                     35                     36
                      A                      A                      A
 Frequencies --    697.5749               720.0089               728.6824
 Red. masses --     11.0327                 2.6002                 4.6036
 Frc consts  --      3.1631                 0.7942                 1.4402
 IR Inten    --      1.3086                16.9385                 3.5014

                     37                     38                     39
                      A                      A                      A
 Frequencies --    755.7045               757.5114               820.5199
 Red. masses --      3.9072                 3.7068                 3.7687
 Frc consts  --      1.3147                 1.2532                 1.4949
 IR Inten    --     17.3752                41.0222                 0.7594

                     40                     41                     42
                      A                      A                      A
 Frequencies --    876.9397               879.9429               886.3148
 Red. masses --      2.0483                 2.1981                 1.3300
 Frc consts  --      0.9281                 1.0028                 0.6156
 IR Inten    --      5.6079                 1.1885                82.4966

                     43                     44                     45
                      A                      A                      A
 Frequencies --    893.1151               915.9488               991.8788
 Red. masses --      1.9759                 2.0972                 1.4575
 Frc consts  --      0.9286                 1.0366                 0.8448
 IR Inten    --      2.8289                 8.2094                16.9284

                     46                     47                     48
                      A                      A                      A
 Frequencies --    996.2224               999.6180              1015.1293
 Red. masses --      1.4142                 4.5629                 2.0983
 Frc consts  --      0.8269                 2.6864                 1.2740
 IR Inten    --     13.5221                 7.5517                 2.8859

                     49                     50                     51
                      A                      A                      A
 Frequencies --   1017.0538              1055.2979              1056.1782
 Red. masses --      1.8769                 2.8164                 1.8989
 Frc consts  --      1.1439                 1.8480                 1.2480
 IR Inten    --     54.4768                11.1770                 7.4094

                     52                     53                     54
                      A                      A                      A
 Frequencies --   1081.0808              1087.9633              1104.3352
 Red. masses --      1.9435                 6.0752                 5.6490
 Frc consts  --      1.3383                 4.2368                 4.0590
 IR Inten    --     27.6166                 2.9800               105.2649

                     55                     56                     57
                      A                      A                      A
 Frequencies --   1123.0945              1131.1355              1158.8102
 Red. masses --      2.0053                 1.7686                 1.1972
 Frc consts  --      1.4902                 1.3332                 0.9472
 IR Inten    --      5.1978                 0.3172                 5.1376

                     58                     59                     60
                      A                      A                      A
 Frequencies --   1164.4867              1175.0201              1192.9649
 Red. masses --      1.7046                 1.3301                 1.1890
 Frc consts  --      1.3619                 1.0820                 0.9970
 IR Inten    --     37.6464                 6.6772                 0.5998

                     61                     62                     63
                      A                      A                      A
 Frequencies --   1205.0628              1259.6111              1264.0383
 Red. masses --      1.4303                 4.5814                 1.2092
 Frc consts  --      1.2237                 4.2827                 1.1384
 IR Inten    --      0.6990                 1.9184                13.6403

                     64                     65                     66
                      A                      A                      A
 Frequencies --   1287.3250              1309.2196              1313.0219
 Red. masses --      2.7225                 1.5819                 1.3562
 Frc consts  --      2.6582                 1.5975                 1.3776
 IR Inten    --    141.9165                92.6765                 7.2427

                     67                     68                     69
                      A                      A                      A
 Frequencies --   1317.1795              1331.1127              1339.5867
 Red. masses --      1.3202                 1.4655                 1.3278
 Frc consts  --      1.3495                 1.5299                 1.4038
 IR Inten    --      6.4504                 2.0541                 7.8207

                     70                     71                     72
                      A                      A                      A
 Frequencies --   1366.1103              1371.1581              1378.5147
 Red. masses --      1.3726                 1.3455                 1.3323
 Frc consts  --      1.5093                 1.4904                 1.4917
 IR Inten    --     28.9286                10.1867                 6.5867

                     73                     74                     75
                      A                      A                      A
 Frequencies --   1391.2051              1406.1653              1409.8766
 Red. masses --      4.3564                 1.4610                 1.4207
 Frc consts  --      4.9678                 1.7020                 1.6639
 IR Inten    --      7.9584                 1.1944                 0.4530

                     76                     77                     78
                      A                      A                      A
 Frequencies --   1412.3041              1419.4660              1440.4178
 Red. masses --      1.5700                 1.9799                 2.3480
 Frc consts  --      1.8451                 2.3504                 2.8703
 IR Inten    --      6.0930                 2.6794                52.2962

                     79                     80                     81
                      A                      A                      A
 Frequencies --   1460.8662              1481.9582              1497.5451
 Red. masses --      1.8831                 1.0566                 1.0537
 Frc consts  --      2.3677                 1.3671                 1.3923
 IR Inten    --     13.6474                 3.6732                 4.7755

                     82                     83                     84
                      A                      A                      A
 Frequencies --   1504.1725              1512.9760              1519.7488
 Red. masses --      1.0779                 1.0846                 2.2559
 Frc consts  --      1.4369                 1.4628                 3.0698
 IR Inten    --      9.4066                 7.2996                44.1405

                     85                     86                     87
                      A                      A                      A
 Frequencies --   1525.3056              1527.4659              1531.9006
 Red. masses --      1.0780                 1.0814                 1.0919
 Frc consts  --      1.4776                 1.4866                 1.5097
 IR Inten    --     22.5076                 7.0819                 6.4312

                     88                     89                     90
                      A                      A                      A
 Frequencies --   1533.1427              1547.6929              1575.8427
 Red. masses --      1.0786                 1.2347                 4.5398
 Frc consts  --      1.4938                 1.7425                 6.6422
 IR Inten    --      3.6165                 8.5632                10.1199

                     91                     92                     93
                      A                      A                      A
 Frequencies --   1693.3512              3025.9408              3033.9126
 Red. masses --      1.0933                 1.0620                 1.0730
 Frc consts  --      1.8470                 5.7291                 5.8190
 IR Inten    --     31.6874                39.4068                 5.7692

                     94                     95                     96
                      A                      A                      A
 Frequencies --   3039.0806              3043.7930              3065.6179
 Red. masses --      1.0683                 1.0688                 1.0627
 Frc consts  --      5.8136                 5.8342                 5.8846
 IR Inten    --     28.6140                24.6799                17.7117

                     97                     98                     99
                      A                      A                      A
 Frequencies --   3069.4805              3078.1065              3080.9812
 Red. masses --      1.1010                 1.0843                 1.0313
 Frc consts  --      6.1118                 6.0530                 5.7677
 IR Inten    --     16.9603                 4.4691                18.1027

                    100                    101                    102
                      A                      A                      A
 Frequencies --   3090.5761              3093.2263              3094.1714
 Red. masses --      1.0389                 1.0911                 1.0919
 Frc consts  --      5.8463                 6.1507                 6.1594
 IR Inten    --      1.2060                27.3306                22.9600

                    103                    104                    105
                      A                      A                      A
 Frequencies --   3107.3597              3126.7933              3147.3015
 Red. masses --      1.1012                 1.0867                 1.0888
 Frc consts  --      6.2649                 6.2600                 6.3546
 IR Inten    --     42.2938                 3.5627                 0.2786

                    106                    107                    108
                      A                      A                      A
 Frequencies --   3159.6386              3177.8223              3186.0298
 Red. masses --      1.1060                 1.1068                 1.1043
 Frc consts  --      6.5054                 6.5856                 6.6045
 IR Inten    --      6.0820                 1.7504                 2.8700

                    109                    110                    111
                      A                      A                      A
 Frequencies --   3214.1589              3468.5556              3556.1115
 Red. masses --      1.1085                 1.0497                 1.0931
 Frc consts  --      6.7472                 7.4409                 8.1443
 IR Inten    --      3.3065                 1.6780                 0.6414

 - Thermochemistry -
 -------------------
 Temperature   298.150 Kelvin.  Pressure   1.00000 Atm.
 Atom     1 has atomic number  6 and mass  12.00000

 Molecular mass:   304.10277 amu.
 Principal axes and moments of inertia in atomic units:
                           1         2         3
     Eigenvalues --  3347.370447909.871309469.88946
           X            0.99946   0.03295   0.00092
           Y           -0.03296   0.99899   0.03040
           Z            0.00008  -0.03041   0.99954
 This molecule is an asymmetric top.
 Rotational symmetry number  1.
 Warning -- assumption of classical behavior for rotation
           may cause significant error
 Rotational temperatures (Kelvin)      0.02588     0.01095     0.00915
 Rotational constants (GHZ):           0.53915     0.22816     0.19058
 Zero-point vibrational energy     856785.8 (Joules/Mol)
                                  204.77671 (Kcal/Mol)
 Warning -- explicit consideration of  31 degrees of freedom as
           vibrations may cause significant error
 Vibrational temperatures:     42.17    62.38    84.04   122.43   133.85
          (Kelvin)            163.44   178.09   192.80   230.92   261.42
                              287.53   311.50   332.38   342.32   358.56
                              369.93   395.44   418.62   450.61   474.93
                              514.02   516.48   566.45   604.59   622.20
                              679.20   692.62   697.90   736.84   782.81
                              829.71   911.30   975.48  1003.65  1035.93
                             1048.41  1087.29  1089.89  1180.55  1261.72
                             1266.04  1275.21  1284.99  1317.85  1427.09
                             1433.34  1438.23  1460.54  1463.31  1518.34
                             1519.60  1555.43  1565.34  1588.89  1615.88
                             1627.45  1667.27  1675.44  1690.59  1716.41
                             1733.82  1812.30  1818.67  1852.17  1883.68
                             1889.15  1895.13  1915.17  1927.37  1965.53
                             1972.79  1983.38  2001.63  2023.16  2028.50
                             2031.99  2042.30  2072.44  2101.86  2132.21
                             2154.63  2164.17  2176.84  2186.58  2194.57
                             2197.68  2204.06  2205.85  2226.78  2267.29
                             2436.35  4353.65  4365.12  4372.56  4379.34
                             4410.74  4416.30  4428.71  4432.84  4446.65
                             4450.46  4451.82  4470.80  4498.76  4528.26
                             4546.02  4572.18  4583.99  4624.46  4990.48
                             5116.45

 Zero-point correction=                           0.326332 (Hartree/Particle)
 Thermal correction to Energy=                    0.345938
 Thermal correction to Enthalpy=                  0.346882
 Thermal correction to Gibbs Free Energy=         0.278422
 Sum of electronic and zero-point Energies=          -1596.732136
 Sum of electronic and thermal Energies=             -1596.712530
 Sum of electronic and thermal Enthalpies=           -1596.711586
 Sum of electronic and thermal Free Energies=        -1596.780046

                     E (Thermal)             CV                S
                      KCal/Mol        Cal/Mol-Kelvin    Cal/Mol-Kelvin
 Total                  217.079             74.418            144.087
 Electronic               0.000              0.000              0.000
 Translational            0.889              2.981             43.033
 Rotational               0.889              2.981             33.883
 Vibrational            215.302             68.457             67.171
 Vibration     1          0.593              1.984              5.876
 Vibration     2          0.595              1.980              5.099
 Vibration     3          0.596              1.974              4.510
 Vibration     4          0.601              1.960              3.770
 Vibration     5          0.602              1.954              3.595
 Vibration     6          0.607              1.938              3.207
 Vibration     7          0.610              1.929              3.041
 Vibration     8          0.613              1.919              2.888
 Vibration     9          0.622              1.891              2.544
 Vibration    10          0.630              1.865              2.311
 Vibration    11          0.638              1.840              2.135
 Vibration    12          0.645              1.816              1.988
 Vibration    13          0.653              1.794              1.871
 Vibration    14          0.656              1.783              1.818
 Vibration    15          0.662              1.764              1.736
 Vibration    16          0.667              1.751              1.681
 Vibration    17          0.677              1.720              1.566
 Vibration    18          0.687              1.691              1.468
 Vibration    19          0.701              1.649              1.345
 Vibration    20          0.713              1.615              1.260
 Vibration    21          0.732              1.560              1.134
 Vibration    22          0.734              1.557              1.127
 Vibration    23          0.761              1.484              0.986
 Vibration    24          0.783              1.426              0.891
 Vibration    25          0.793              1.400              0.851
 Vibration    26          0.829              1.312              0.732
 Vibration    27          0.838              1.291              0.706
 Vibration    28          0.841              1.283              0.697
 Vibration    29          0.867              1.223              0.628
 Vibration    30          0.899              1.153              0.557
 Vibration    31          0.933              1.082              0.492

                           ! Non-Optimized Parameters !
 Normal termination of Gaussian 16 at Sat Dec 12 10:56:52 2020.

 ----------------------------------------------------------------------
 # B3LYP/6-311++G(d,p) empiricaldispersion=gd3bj scf=xqc pop=npa geom=c
 heck
 ----------------------------------------------------------------------

 --------------------------------------
 CID_80056214_JID_9520_Energie_neutraal
 --------------------------------------
 Structure from the checkpoint file:  "JID_9520.chk"
 Charge =  0 Multiplicity = 1

 SCF Done:  E(RB3LYP) =  -1597.34096784     A.U. after   17 cycles
 Normal termination of Gaussian 16 at Sat Dec 12 11:09:01 2020.

 ----------------------------------------------------------------------
 # B3LYP/6-311++G(d,p) empiricaldispersion=gd3bj scf=xqc pop=npa geom=c
 heck
 ----------------------------------------------------------------------

 ------------------------------------
 CID_80056214_JID_9520_Energie_kation
 ------------------------------------
 Structure from the checkpoint file:  "JID_9520.chk"
 Charge =  1 Multiplicity = 2

 SCF Done:  E(UB3LYP) =  -1597.04564835     A.U. after   28 cycles
 Normal termination of Gaussian 16 at Sat Dec 12 11:37:35 2020.
 Gaussian 16:  ES64L-G16RevA.03 25-Dec-2016

 ----------------------------------------------------------------------
 # B3LYP/6-311++G(d,p) empiricaldispersion=gd3bj scf=xqc pop=npa geom=c
 heck
 ----------------------------------------------------------------------

 -----------------------------------
 CID_80056214_JID_9520_Energie_anion
 -----------------------------------
 Structure from the checkpoint file:  "JID_9520.chk"
 Charge = -1 Multiplicity = 2

                         Standard orientation:
 ---------------------------------------------------------------------
 Center     Atomic      Atomic             Coordinates (Angstroms)
 Number     Number       Type             X           Y           Z
 ---------------------------------------------------------------------
      1          6           0        2.126739    0.935470    1.478824
      2          7           0        2.241098   -0.097949    0.457053
      3          6           0        3.191039   -0.185730   -0.531369
      4          7           0        2.922820   -1.191744   -1.336605
      5          7           0        1.765486   -1.793925   -0.882142
      6          6           0        1.372076   -1.120053    0.179098
      7         16           0       -0.089084   -1.442272    1.108462
      8          6           0       -1.197610   -1.946636   -0.300415
      9          6           0       -2.539278   -2.400539    0.285501
     10          6           0       -3.387710   -1.226773    0.790151
     11          6           0       -3.639263   -0.203516   -0.325376
     12          6           0       -2.360796    0.268690   -1.037054
     13          6           0       -1.373436   -0.858400   -1.363468
     14         16           0       -1.610892    1.776266   -0.266655
     15          8           0       -0.168100    1.791488   -0.583386
     16          8           0       -2.472202    2.892456   -0.699647
     17          6           0       -1.769970    1.698381    1.531876
     18          6           0        4.361050    0.731808   -0.669693
     19          7           0        5.200737    0.698027    0.539440
     20          1           0        1.669849    0.508784    2.374081
     21          1           0        3.133368    1.279935    1.719176
     22          1           0        1.503263    1.749794    1.102190
     23          1           0       -0.678710   -2.789642   -0.759836
     24          1           0       -3.084252   -2.919682   -0.515246
     25          1           0       -2.377535   -3.134048    1.082904
     26          1           0       -2.890872   -0.755649    1.645193
     27          1           0       -4.349981   -1.598113    1.160335
     28          1           0       -4.213010    0.657627    0.034645
     29          1           0       -4.264273   -0.679682   -1.092489
     30          1           0       -2.647731    0.745290   -1.981072
     31          1           0       -0.407442   -0.444922   -1.658636
     32          1           0       -1.773341   -1.364161   -2.253794
     33          1           0       -2.824062    1.638203    1.803307
     34          1           0       -1.198205    0.855323    1.915396
     35          1           0       -1.352361    2.645615    1.881537
     36          1           0        4.870595    0.441706   -1.599860
     37          1           0        4.008725    1.763294   -0.798506
     38          1           0        5.618121   -0.227291    0.629723
     39          1           0        5.971851    1.355068    0.433632
 ---------------------------------------------------------------------

 SCF Done:  E(UB3LYP) =  -1597.33662102     A.U. after   32 cycles

 The electronic state is 2-A.
 Alpha  occ. eigenvalues --  -88.95608 -88.77197 -19.02727 -19.02339 -14.28908
 Alpha  occ. eigenvalues --  -14.22943 -14.22847 -14.21746 -10.16260 -10.14148
 Alpha  occ. eigenvalues --  -10.13396 -10.12889 -10.12459 -10.12166 -10.11994
 Alpha  occ. eigenvalues --  -10.10146 -10.09882 -10.09580 -10.09132  -8.02125
 Alpha  occ. eigenvalues --   -7.85880  -5.98382  -5.98283  -5.98214  -5.82276
 Alpha  occ. eigenvalues --   -5.81882  -5.81251  -1.01652  -0.97191  -0.91354
 Alpha  occ. eigenvalues --   -0.83550  -0.80879  -0.77954  -0.74176  -0.70652
 Alpha  occ. eigenvalues --   -0.68565  -0.68099  -0.64630  -0.63214  -0.60068
 Alpha  occ. eigenvalues --   -0.57840  -0.54649  -0.52390  -0.50519  -0.48181
 Alpha  occ. eigenvalues --   -0.45955  -0.43310  -0.42702  -0.41383  -0.40731
 Alpha  occ. eigenvalues --   -0.39798  -0.39161  -0.38468  -0.38270  -0.36842
 Alpha  occ. eigenvalues --   -0.36479  -0.35231  -0.34776  -0.34136  -0.33552
 Alpha  occ. eigenvalues --   -0.33056  -0.32679  -0.32175  -0.31559  -0.30835
 Alpha  occ. eigenvalues --   -0.30115  -0.29524  -0.27080  -0.25173  -0.24755
 Alpha  occ. eigenvalues --   -0.24165  -0.23790  -0.23047  -0.22202  -0.21670
 Alpha  occ. eigenvalues --   -0.20139  -0.20000  -0.19107  -0.17244  -0.17059
 Alpha  occ. eigenvalues --   -0.13936   0.03289
 Alpha virt. eigenvalues --    0.04503   0.05707   0.06753   0.07461   0.07649
 Alpha virt. eigenvalues --    0.08423   0.08624   0.09228   0.09494   0.09711
 Alpha virt. eigenvalues --    0.10173   0.10375   0.10794   0.11332   0.11696

  Beta  occ. eigenvalues --  -88.95607 -88.77189 -19.02724 -19.02336 -14.28881
  Beta  occ. eigenvalues --  -14.22937 -14.22850 -14.21691 -10.16244 -10.14142
  Beta  occ. eigenvalues --  -10.13392 -10.12869 -10.12446 -10.12137 -10.11977
  Beta  occ. eigenvalues --  -10.10118 -10.09872 -10.09563 -10.09106  -8.02124
  Beta  occ. eigenvalues --   -7.85869  -5.98380  -5.98281  -5.98211  -5.82268
  Beta  occ. eigenvalues --   -5.81875  -5.81243  -1.01645  -0.97166  -0.91349
  Beta  occ. eigenvalues --   -0.83518  -0.80797  -0.77913  -0.74138  -0.70615
  Beta  occ. eigenvalues --   -0.68524  -0.68063  -0.64588  -0.63171  -0.60008
  Beta  occ. eigenvalues --   -0.57805  -0.54596  -0.52345  -0.50490  -0.48147
  Beta  occ. eigenvalues --   -0.45916  -0.43263  -0.42645  -0.41345  -0.40680
  Beta  occ. eigenvalues --   -0.39762  -0.39121  -0.38436  -0.38240  -0.36807
  Beta  occ. eigenvalues --   -0.36430  -0.35192  -0.34747  -0.34100  -0.33524
  Beta  occ. eigenvalues --   -0.33023  -0.32652  -0.32133  -0.31516  -0.30800
  Beta  occ. eigenvalues --   -0.30081  -0.29485  -0.27035  -0.25136  -0.24731
  Beta  occ. eigenvalues --   -0.24137  -0.23756  -0.23030  -0.22189  -0.21662
  Beta  occ. eigenvalues --   -0.20113  -0.19935  -0.19056  -0.17198  -0.17039
  Beta  occ. eigenvalues --   -0.13897
  Beta virt. eigenvalues --    0.05405   0.05769   0.06300   0.07236   0.07796
  Beta virt. eigenvalues --    0.07975   0.08750   0.08921   0.09402   0.09799
  Beta virt. eigenvalues --    0.09968   0.10428   0.10586   0.11131   0.11566

 Mulliken charges and spin densities:
               1          2
     1  C   -0.122235  -0.249807
     2  N    0.298969   0.038884
     3  C   -0.145536   0.173879
     4  N    0.101274   0.004772
     5  N   -0.149869   0.007811
     6  C   -0.739577  -0.070398
     7  S    0.637215  -0.315962
     8  C    0.132731   0.184608
     9  C    0.003869  -0.693754
    10  C    0.096747  -0.052956
    11  C    0.531966  -1.226440
    12  C   -0.808785   0.380201
    13  C   -0.206915  -0.333197
    14  S    0.366411  -0.057563
    15  O   -0.106688   0.005710
    16  O   -0.075215   0.026589
    17  C   -0.253386  -0.502583
    18  C   -0.119806  -0.691276
    19  N   -0.346783  -0.017226
    20  H   -0.127600   0.274062
    21  H    0.056799   0.163885
    22  H    0.261604  -0.062963
    23  H    0.372644  -0.010983
    24  H   -0.150378   0.313810
    25  H    0.022972   0.173733
    26  H   -0.046998   0.159250
    27  H   -0.708236   0.930102
    28  H    0.121260   0.094023
    29  H   -0.290797   0.476311
    30  H    0.183511   0.112307
    31  H    0.286337  -0.064578
    32  H   -0.105622   0.312342
    33  H   -0.074892   0.329004
    34  H    0.026873   0.184331
    35  H    0.153505   0.075070
    36  H    0.093908   0.080641
    37  H   -0.002157   0.196697
    38  H    0.056628   0.177868
    39  H   -0.223747   0.473798
 Sum of Mulliken charges =  -1.00000   1.00000

 Dipole moment (field-independent basis, Debye):
    X=             -0.0991    Y=              0.5737    Z=              1.5092  Tot=              1.6176
 Quadrupole moment (field-independent basis, Debye-Ang):
   XX=           -239.3914   YY=           -179.4052   ZZ=           -164.2969
   XY=             -6.2681   XZ=              0.1054   YZ=              0.1051

 Summary of Natural Population Analysis:

                                       Natural Population
                Natural  -----------------------------------------------
    Atom  No    Charge         Core      Valence    Rydberg      Total
 -----------------------------------------------------------------------
      C    1   -0.18662      0.99963     2.17948    0.00751     3.18662
      N    2   -0.20775      0.99955     2.69790    0.01030     3.70775
      C    3    0.18440      0.99959     1.79777    0.01824     2.81560
      N    4   -0.16009      0.99969     2.64810    0.01231     3.66009
      N    5   -0.18148      0.99966     2.66838    0.01345     3.68148
      C    6    0.11236      0.99954     1.86850    0.01960     2.88764
      S    7    0.10776      4.99951     2.87530    0.01744     7.89224
      C    8   -0.14986      0.99954     2.13653    0.01379     3.14986
      C    9   -0.19684      0.99960     2.18715    0.01009     3.19684
      C   10   -0.19588      0.99962     2.18624    0.01001     3.19588
      C   11   -0.20085      0.99960     2.19086    0.01040     3.20085
      C   12   -0.19439      0.99952     2.17903    0.01584     3.19439
      C   13   -0.21045      0.99955     2.19928    0.01161     3.21045
      S   14    1.01698      4.99924     1.89131    0.09247     6.98302
      O   15   -0.47425      0.99991     3.46809    0.00625     4.47425
      O   16   -0.47509      0.99991     3.46939    0.00579     4.47509
      C   17   -0.39801      0.99960     2.39059    0.00783     3.39801
      C   18   -0.11274      0.99960     2.10128    0.01186     3.11274
      N   19   -0.42169      0.99977     2.91179    0.01012     3.92169
      H   20    0.10090      0.00000     0.39812    0.00098     0.39910
      H   21    0.11721      0.00000     0.38121    0.00158     0.38279
      H   22    0.11039      0.00000     0.38816    0.00145     0.38961
      H   23    0.11556      0.00000     0.38219    0.00225     0.38444
      H   24    0.10574      0.00000     0.39276    0.00149     0.39426
      H   25    0.10551      0.00000     0.39351    0.00098     0.39449
      H   26    0.09548      0.00000     0.40270    0.00182     0.40452
      H   27    0.10789      0.00000     0.38984    0.00227     0.39211
      H   28    0.10890      0.00000     0.38974    0.00136     0.39110
      H   29    0.10866      0.00000     0.38940    0.00194     0.39134
      H   30    0.12268      0.00000     0.37613    0.00119     0.37732
      H   31    0.12577      0.00000     0.37268    0.00155     0.37423
      H   32    0.11051      0.00000     0.38823    0.00125     0.38949
      H   33    0.11580      0.00000     0.38317    0.00104     0.38420
      H   34    0.12132      0.00000     0.37685    0.00183     0.37868
      H   35    0.11858      0.00000     0.38043    0.00099     0.38142
      H   36    0.09763      0.00000     0.40058    0.00180     0.40237
      H   37    0.10003      0.00000     0.39875    0.00121     0.39997
      H   38    0.17624      0.00000     0.32171    0.00205     0.32376
      H   39    0.17969      0.00000     0.31590    0.00441     0.32031
 =======================================================================
   * Total *   -0.00000     26.99263    53.66902    0.33835    81.00000

 Normal termination of Gaussian 16 at Sat Dec 12 12:10:05 2020.
