 Gaussian 16, Revision A.03,

 -----------------------------------------------------------
 # opt freq B3LYP/6-31G(d) empiricaldispersion=gd3bj scf=xqc
 -----------------------------------------------------------

 -------------------------------
 CID_130005362_JID_3545_neutraal
 -------------------------------
 Symbolic Z-matrix:
 Charge =  0 Multiplicity = 1

 SCF Done:  E(RB3LYP) =  -1275.95837565     A.U. after   15 cycles
 SCF Done:  E(RB3LYP) =  -1275.96620929     A.U. after   13 cycles
 SCF Done:  E(RB3LYP) =  -1275.97169872     A.U. after   15 cycles
 SCF Done:  E(RB3LYP) =  -1275.97427771     A.U. after   14 cycles
 SCF Done:  E(RB3LYP) =  -1275.97532841     A.U. after   12 cycles
 SCF Done:  E(RB3LYP) =  -1275.97578252     A.U. after   12 cycles
 SCF Done:  E(RB3LYP) =  -1275.97596590     A.U. after   11 cycles
 SCF Done:  E(RB3LYP) =  -1275.97610623     A.U. after   12 cycles
 SCF Done:  E(RB3LYP) =  -1275.97620450     A.U. after   12 cycles
 SCF Done:  E(RB3LYP) =  -1275.97632534     A.U. after   12 cycles
 SCF Done:  E(RB3LYP) =  -1275.97651675     A.U. after   12 cycles
 SCF Done:  E(RB3LYP) =  -1275.97651956     A.U. after    9 cycles
 SCF Done:  E(RB3LYP) =  -1275.97652071     A.U. after    9 cycles
 SCF Done:  E(RB3LYP) =  -1275.97652093     A.U. after    8 cycles
 SCF Done:  E(RB3LYP) =  -1275.97652097     A.U. after    8 cycles
 Optimization completed.
    -- Stationary point found.
 Normal termination of Gaussian 16 at Wed Dec  9 23:37:46 2020.

 --------------------------------------------------------------------
 #N Geom=AllCheck Guess=TCheck SCRF=Check GenChk RB3LYP/6-31G(d) Freq
 --------------------------------------------------------------------

 Structure from the checkpoint file:  "JID_3545.chk"
 -------------------------------
 CID_130005362_JID_3545_neutraal
 -------------------------------
 Charge =  0 Multiplicity = 1

 SCF Done:  E(RB3LYP) =  -1275.97652097     A.U. after    1 cycles

  Exact polarizability: 199.201 -18.538 150.635   8.071  -6.818  82.983
 Approx polarizability: 296.675 -41.348 257.942  21.831 -20.731 132.235

                      1                      2                      3
                      A                      A                      A
 Frequencies --     19.8191                44.4126                78.3392
 Red. masses --      4.9591                 6.4416                 4.0496
 Frc consts  --      0.0011                 0.0075                 0.0146
 IR Inten    --      0.0299                 0.2754                 2.4298

                      4                      5                      6
                      A                      A                      A
 Frequencies --     88.9406               110.8880               154.4572
 Red. masses --      3.6777                 3.3366                 3.1257
 Frc consts  --      0.0171                 0.0242                 0.0439
 IR Inten    --      3.8351                 1.8336                 1.3868

                      7                      8                      9
                      A                      A                      A
 Frequencies --    164.3048               176.7052               217.0021
 Red. masses --      1.2024                 1.0438                 4.7526
 Frc consts  --      0.0191                 0.0192                 0.1319
 IR Inten    --      0.1760                 0.0889                 2.1342

                     10                     11                     12
                      A                      A                      A
 Frequencies --    256.6915               262.5372               285.7538
 Red. masses --      4.0833                 8.6903                 5.7684
 Frc consts  --      0.1585                 0.3529                 0.2775
 IR Inten    --      7.4690                 0.5614                 8.5167

                     13                     14                     15
                      A                      A                      A
 Frequencies --    368.8867               396.6927               487.4099
 Red. masses --      4.0631                 6.5099                 3.8948
 Frc consts  --      0.3258                 0.6036                 0.5452
 IR Inten    --      2.5746                 1.7063                 2.6115

                     16                     17                     18
                      A                      A                      A
 Frequencies --    499.0971               512.9351               526.2955
 Red. masses --      6.1984                 5.8930                 5.0219
 Frc consts  --      0.9097                 0.9135                 0.8196
 IR Inten    --     11.5376                 7.6735                10.8896

                     19                     20                     21
                      A                      A                      A
 Frequencies --    596.4552               609.9857               624.3212
 Red. masses --      4.0030                 4.0763                 5.3092
 Frc consts  --      0.8391                 0.8936                 1.2193
 IR Inten    --      3.4375                13.6898                18.6275

                     22                     23                     24
                      A                      A                      A
 Frequencies --    672.1296               729.8286               756.2524
 Red. masses --      1.6129                 6.1902                 2.6625
 Frc consts  --      0.4293                 1.9427                 0.8972
 IR Inten    --     83.5126                 4.7620                12.5293

                     25                     26                     27
                      A                      A                      A
 Frequencies --    779.0702               803.8343               866.9693
 Red. masses --      1.6027                 4.5528                 3.6194
 Frc consts  --      0.5731                 1.7332                 1.6028
 IR Inten    --     41.6991                 6.1523                 0.7975

                     28                     29                     30
                      A                      A                      A
 Frequencies --    885.3858               949.9563               980.5473
 Red. masses --      1.6482                 1.3604                 1.2517
 Frc consts  --      0.7613                 0.7233                 0.7091
 IR Inten    --      3.9341                 2.5992                 0.9178

                     31                     32                     33
                      A                      A                      A
 Frequencies --    999.5982              1002.7983              1039.8026
 Red. masses --      1.1993                 1.3446                 7.7578
 Frc consts  --      0.7060                 0.7966                 4.9418
 IR Inten    --      4.5972                31.2670                61.6057

                     34                     35                     36
                      A                      A                      A
 Frequencies --   1048.6279              1068.9871              1133.8207
 Red. masses --      5.2367                 2.0175                 2.0548
 Frc consts  --      3.3928                 1.3583                 1.5564
 IR Inten    --    133.4512                19.4643                43.4249

                     37                     38                     39
                      A                      A                      A
 Frequencies --   1186.7260              1191.1679              1209.5627
 Red. masses --      1.2539                 1.1408                 1.5028
 Frc consts  --      1.0405                 0.9537                 1.2954
 IR Inten    --      1.0463                 1.5542                 8.2846

                     40                     41                     42
                      A                      A                      A
 Frequencies --   1230.2267              1282.5231              1315.1208
 Red. masses --      2.0459                 3.7240                 1.6741
 Frc consts  --      1.8243                 3.6091                 1.7060
 IR Inten    --     16.1946               122.1530                14.5120

                     43                     44                     45
                      A                      A                      A
 Frequencies --   1337.5719              1373.0321              1387.3500
 Red. masses --      4.4479                 3.2918                 1.1654
 Frc consts  --      4.6886                 3.6564                 1.3216
 IR Inten    --     69.8529               247.5485                 2.6503

                     46                     47                     48
                      A                      A                      A
 Frequencies --   1481.2859              1482.5423              1496.8566
 Red. masses --      1.4490                 1.0639                 1.0624
 Frc consts  --      1.8732                 1.3777                 1.4024
 IR Inten    --     53.2675                19.2364                22.2658

                     49                     50                     51
                      A                      A                      A
 Frequencies --   1511.3619              1516.7230              1521.1084
 Red. masses --      2.0173                 1.0550                 1.5677
 Frc consts  --      2.7150                 1.4299                 2.1372
 IR Inten    --     14.4970                 9.7404                42.2784

                     52                     53                     54
                      A                      A                      A
 Frequencies --   1533.2551              1558.7904              1645.0257
 Red. masses --      1.0771                 2.4323                 5.6328
 Frc consts  --      1.4919                 3.4821                 8.9808
 IR Inten    --      3.3226               294.8900                11.0740

                     55                     56                     57
                      A                      A                      A
 Frequencies --   1661.1981              3040.5767              3079.4211
 Red. masses --      6.0756                 1.0324                 1.0305
 Frc consts  --      9.8783                 5.6237                 5.7574
 IR Inten    --      5.6409                41.9380                13.9740

                     58                     59                     60
                      A                      A                      A
 Frequencies --   3106.7706              3164.0995              3170.9020
 Red. masses --      1.1069                 1.1028                 1.1034
 Frc consts  --      6.2950                 6.5048                 6.5365
 IR Inten    --     29.3462                23.5032                 3.8294

                     61                     62                     63
                      A                      A                      A
 Frequencies --   3188.8885              3196.6714              3209.7293
 Red. masses --      1.1084                 1.0862                 1.0908
 Frc consts  --      6.6407                 6.5396                 6.6214
 IR Inten    --      1.6232                 0.7220                15.0614

                     64                     65                     66
                      A                      A                      A
 Frequencies --   3219.8040              3233.4750              3557.1109
 Red. masses --      1.0955                 1.0939                 1.0751
 Frc consts  --      6.6916                 6.7383                 8.0148
 IR Inten    --     16.6466                 2.2831                55.9245

 - Thermochemistry -
 -------------------
 Temperature   298.150 Kelvin.  Pressure   1.00000 Atm.
 Atom     1 has atomic number  6 and mass  12.00000

 Molecular mass:   213.02821 amu.
 Principal axes and moments of inertia in atomic units:
                           1         2         3
     Eigenvalues --  1818.361434279.924995413.33229
           X            0.99990   0.01342  -0.00403
           Y           -0.01330   0.99949   0.02901
           Z            0.00441  -0.02896   0.99957
 This molecule is an asymmetric top.
 Rotational symmetry number  1.
 Warning -- assumption of classical behavior for rotation
           may cause significant error
 Rotational temperatures (Kelvin)      0.04763     0.02024     0.01600
 Rotational constants (GHZ):           0.99251     0.42168     0.33339
 Zero-point vibrational energy     492194.0 (Joules/Mol)
                                  117.63720 (Kcal/Mol)
 Warning -- explicit consideration of  20 degrees of freedom as
           vibrations may cause significant error
 Vibrational temperatures:     28.52    63.90   112.71   127.97   159.54
          (Kelvin)            222.23   236.40   254.24   312.22   369.32
                              377.73   411.14   530.75   570.75   701.27
                              718.09   738.00   757.22   858.17   877.63
                              898.26   967.04  1050.06  1088.08  1120.91
                             1156.54  1247.38  1273.87  1366.78  1410.79
                             1438.20  1442.80  1496.04  1508.74  1538.03
                             1631.32  1707.43  1713.82  1740.29  1770.02
                             1845.26  1892.17  1924.47  1975.49  1996.09
                             2131.24  2133.05  2153.64  2174.51  2182.23
                             2188.54  2206.01  2242.75  2366.83  2390.09
                             4374.71  4430.60  4469.95  4552.43  4562.22
                             4588.10  4599.30  4618.08  4632.58  4652.25
                             5117.89

 Zero-point correction=                           0.187467 (Hartree/Particle)
 Thermal correction to Energy=                    0.201084
 Thermal correction to Enthalpy=                  0.202028
 Thermal correction to Gibbs Free Energy=         0.145232
 Sum of electronic and zero-point Energies=          -1275.789054
 Sum of electronic and thermal Energies=             -1275.775437
 Sum of electronic and thermal Enthalpies=           -1275.774493
 Sum of electronic and thermal Free Energies=        -1275.831289

                     E (Thermal)             CV                S
                      KCal/Mol        Cal/Mol-Kelvin    Cal/Mol-Kelvin
 Total                  126.182             49.153            119.538
 Electronic               0.000              0.000              0.000
 Translational            0.889              2.981             41.972
 Rotational               0.889              2.981             32.110
 Vibrational            124.405             43.192             45.456
 Vibration     1          0.593              1.986              6.652
 Vibration     2          0.595              1.980              5.052
 Vibration     3          0.600              1.964              3.932
 Vibration     4          0.602              1.957              3.683
 Vibration     5          0.607              1.940              3.253
 Vibration     6          0.620              1.898              2.617
 Vibration     7          0.623              1.886              2.500
 Vibration     8          0.628              1.871              2.363
 Vibration     9          0.646              1.815              1.984
 Vibration    10          0.666              1.751              1.684
 Vibration    11          0.670              1.741              1.645
 Vibration    12          0.684              1.700              1.499
 Vibration    13          0.741              1.536              1.084
 Vibration    14          0.763              1.477              0.975
 Vibration    15          0.843              1.278              0.690
 Vibration    16          0.855              1.252              0.660
 Vibration    17          0.868              1.221              0.627
 Vibration    18          0.881              1.192              0.596
 Vibration    19          0.954              1.039              0.456
 Vibration    20          0.969              1.011              0.433

                           ! Non-Optimized Parameters !
 Normal termination of Gaussian 16 at Wed Dec  9 23:43:15 2020.

 ----------------------------------------------------------------------
 # B3LYP/6-311++G(d,p) empiricaldispersion=gd3bj scf=xqc pop=npa geom=c
 heck
 ----------------------------------------------------------------------

 ---------------------------------------
 CID_130005362_JID_3545_Energie_neutraal
 ---------------------------------------
 Structure from the checkpoint file:  "JID_3545.chk"
 Charge =  0 Multiplicity = 1

 SCF Done:  E(RB3LYP) =  -1276.16166997     A.U. after   16 cycles
 Normal termination of Gaussian 16 at Wed Dec  9 23:45:29 2020.

 ----------------------------------------------------------------------
 # B3LYP/6-311++G(d,p) empiricaldispersion=gd3bj scf=xqc pop=npa geom=c
 heck
 ----------------------------------------------------------------------

 -------------------------------------
 CID_130005362_JID_3545_Energie_kation
 -------------------------------------
 Structure from the checkpoint file:  "JID_3545.chk"
 Charge =  1 Multiplicity = 2

 SCF Done:  E(UB3LYP) =  -1275.87031592     A.U. after   33 cycles
 SCF Done:  E(UB3LYP) =  -1275.87031592     a.u. after    1 cycles
 Normal termination of Gaussian 16 at Wed Dec  9 23:51:36 2020.
 Gaussian 16:  ES64L-G16RevA.03 25-Dec-2016

 ----------------------------------------------------------------------
 # B3LYP/6-311++G(d,p) empiricaldispersion=gd3bj scf=xqc pop=npa geom=c
 heck
 ----------------------------------------------------------------------

 ------------------------------------
 CID_130005362_JID_3545_Energie_anion
 ------------------------------------
 Structure from the checkpoint file:  "JID_3545.chk"
 Charge = -1 Multiplicity = 2

                         Standard orientation:
 ---------------------------------------------------------------------
 Center     Atomic      Atomic             Coordinates (Angstroms)
 Number     Number       Type             X           Y           Z
 ---------------------------------------------------------------------
      1          6           0        1.239359    2.433412    1.238093
      2          8           0        1.820248    2.002678   -0.000147
      3          6           0        2.016550    0.641036   -0.080037
      4          6           0        3.267019    0.090147    0.180921
      5          6           0        3.459914   -1.286142    0.051533
      6          6           0        2.403603   -2.102564   -0.354063
      7          6           0        1.154317   -1.552533   -0.639801
      8          6           0        0.946802   -0.179554   -0.481661
      9          7           0       -0.270626    0.472637   -0.789687
     10          6           0       -1.545432    0.206283   -0.395353
     11         16           0       -2.790980    1.241259   -0.789578
     12         16           0       -1.727812   -1.272090    0.581505
     13          6           0       -3.503026   -1.230115    0.973368
     14          1           0        1.900051    2.188743    2.078649
     15          1           0        0.259048    1.970268    1.400663
     16          1           0        1.124039    3.515939    1.161126
     17          1           0        4.073364    0.752009    0.480480
     18          1           0        4.434693   -1.716675    0.259480
     19          1           0        2.554318   -3.171029   -0.472812
     20          1           0        0.347140   -2.179587   -0.999280
     21          1           0       -0.161379    1.402060   -1.183530
     22          1           0       -3.751069   -0.335048    1.545044
     23          1           0       -4.096866   -1.255496    0.059027
     24          1           0       -3.684913   -2.127589    1.571305
 ---------------------------------------------------------------------

 SCF Done:  E(UB3LYP) =  -1276.16403034     A.U. after   29 cycles

 The electronic state is 2-A.
 Alpha  occ. eigenvalues --  -88.71643 -88.63384 -19.02637 -14.20570 -10.10915
 Alpha  occ. eigenvalues --  -10.09704 -10.08836 -10.07555 -10.06882 -10.04895
 Alpha  occ. eigenvalues --  -10.04873 -10.04184 -10.03957  -7.80237  -7.72141
 Alpha  occ. eigenvalues --   -5.76613  -5.76219  -5.75681  -5.68513  -5.67998
 Alpha  occ. eigenvalues --   -5.67747  -0.94140  -0.81900  -0.72428  -0.66900
 Alpha  occ. eigenvalues --   -0.63129  -0.62575  -0.58253  -0.56418  -0.52493
 Alpha  occ. eigenvalues --   -0.49194  -0.47320  -0.42741  -0.41321  -0.38412
 Alpha  occ. eigenvalues --   -0.36098  -0.35042  -0.33554  -0.32333  -0.31502
 Alpha  occ. eigenvalues --   -0.31123  -0.30473  -0.27413  -0.26670  -0.25240
 Alpha  occ. eigenvalues --   -0.24715  -0.24050  -0.23695  -0.21852  -0.18180
 Alpha  occ. eigenvalues --   -0.16544  -0.14616  -0.12733  -0.10210  -0.07495
 Alpha  occ. eigenvalues --   -0.06368   0.05216
 Alpha virt. eigenvalues --    0.08121   0.08845   0.09061   0.10301   0.10749
 Alpha virt. eigenvalues --    0.11207   0.11820   0.12081   0.12589   0.13044
 Alpha virt. eigenvalues --    0.13433   0.14152   0.15067   0.15733   0.16026

  Beta  occ. eigenvalues --  -88.71637 -88.63321 -19.02630 -14.20618 -10.10901
  Beta  occ. eigenvalues --  -10.09635 -10.08039 -10.07378 -10.06883 -10.04910
  Beta  occ. eigenvalues --  -10.04900 -10.04080 -10.03714  -7.80231  -7.72084
  Beta  occ. eigenvalues --   -5.76622  -5.76232  -5.75630  -5.68505  -5.67778
  Beta  occ. eigenvalues --   -5.67707  -0.94098  -0.81514  -0.72150  -0.66587
  Beta  occ. eigenvalues --   -0.62971  -0.62184  -0.57977  -0.56120  -0.52294
  Beta  occ. eigenvalues --   -0.48940  -0.47108  -0.42376  -0.41216  -0.38261
  Beta  occ. eigenvalues --   -0.35938  -0.34927  -0.33436  -0.32172  -0.31408
  Beta  occ. eigenvalues --   -0.31032  -0.30353  -0.26909  -0.26386  -0.24794
  Beta  occ. eigenvalues --   -0.24443  -0.23569  -0.23239  -0.20892  -0.17823
  Beta  occ. eigenvalues --   -0.16448  -0.13293  -0.12211  -0.09651  -0.06420
  Beta  occ. eigenvalues --   -0.06226
  Beta virt. eigenvalues --    0.08066   0.08780   0.09003   0.10221   0.10836
  Beta virt. eigenvalues --    0.11169   0.11304   0.11834   0.12415   0.12977
  Beta virt. eigenvalues --    0.13190   0.14125   0.14473   0.15407   0.15753

 Mulliken charges and spin densities:
               1          2
     1  C   -0.301184   0.005464
     2  O   -0.180863  -0.000594
     3  C   -0.581918   0.057076
     4  C   -0.004763  -0.014056
     5  C   -0.380453   0.190054
     6  C   -0.264597  -0.058000
     7  C    0.099392   0.083990
     8  C    0.350481   0.109402
     9  N    0.070611  -0.010319
    10  C    0.052337   0.301630
    11  S   -0.809412   0.229748
    12  S   -0.192093   0.082145
    13  C   -0.385113  -0.028838
    14  H    0.107137   0.001792
    15  H    0.178061   0.009519
    16  H    0.124510   0.000207
    17  H    0.141944   0.003177
    18  H    0.105812  -0.014564
    19  H    0.128696   0.004247
    20  H    0.101615   0.020837
    21  H    0.278212   0.005676
    22  H    0.146254  -0.001269
    23  H    0.135079   0.015910
    24  H    0.080255   0.006767
 Sum of Mulliken charges =  -1.00000   1.00000

 Dipole moment (field-independent basis, Debye):
    X=              3.6432    Y=             -1.2510    Z=              2.9829  Tot=              4.8719
 Quadrupole moment (field-independent basis, Debye-Ang):
   XX=           -133.5866   YY=           -108.4664   ZZ=           -104.3141
   XY=             10.8378   XZ=             -4.8585   YZ=              5.4633

 Summary of Natural Population Analysis:

                                       Natural Population
                Natural  -----------------------------------------------
    Atom  No    Charge         Core      Valence    Rydberg      Total
 -----------------------------------------------------------------------
      C    1   -0.09640      0.99960     2.08893    0.00787     3.09640
      O    2   -0.29742      0.99986     3.28693    0.01062     4.29742
      C    3    0.15423      0.99933     1.83500    0.01145     2.84577
      C    4   -0.12667      0.99952     2.11792    0.00923     3.12667
      C    5   -0.07041      0.99958     2.06119    0.00964     3.07041
      C    6   -0.11679      0.99958     2.10803    0.00918     3.11679
      C    7   -0.08829      0.99954     2.08060    0.00815     3.08829
      C    8    0.08448      0.99942     1.90471    0.01138     2.91552
      N    9   -0.31800      0.99961     2.80456    0.01384     3.81800
      C   10    0.09070      0.99968     1.89214    0.01748     2.90930
      S   11   -0.12689      4.99952     3.11120    0.01618     8.12689
      S   12    0.11175      4.99948     2.86582    0.02296     7.88825
      C   13   -0.35161      0.99962     2.34594    0.00604     3.35161
      H   14    0.07671      0.00000     0.42201    0.00127     0.42329
      H   15    0.09347      0.00000     0.40538    0.00115     0.40653
      H   16    0.08456      0.00000     0.41453    0.00091     0.41544
      H   17    0.09660      0.00000     0.40190    0.00150     0.40340
      H   18    0.08904      0.00000     0.40990    0.00105     0.41096
      H   19    0.09293      0.00000     0.40606    0.00101     0.40707
      H   20    0.10586      0.00000     0.39226    0.00188     0.39414
      H   21    0.20252      0.00000     0.29512    0.00236     0.29748
      H   22    0.10757      0.00000     0.39101    0.00141     0.39243
      H   23    0.10719      0.00000     0.38956    0.00325     0.39281
      H   24    0.09487      0.00000     0.40415    0.00099     0.40513
 =======================================================================
   * Total *   -0.00000     20.99435    34.83486    0.17079    56.00000

 Normal termination of Gaussian 16 at Wed Dec  9 23:56:56 2020.
