 Gaussian 16, Revision A.03,

 -----------------------------------------------------------
 # opt freq B3LYP/6-31G(d) empiricaldispersion=gd3bj scf=xqc
 -----------------------------------------------------------

 --------------------------------
 CID_150062005_JID_10606_neutraal
 --------------------------------
 Symbolic Z-matrix:
 Charge =  0 Multiplicity = 1

 SCF Done:  E(RB3LYP) =  -900.422511993     A.U. after   15 cycles
 SCF Done:  E(RB3LYP) =  -900.383427667     A.U. after   14 cycles
 SCF Done:  E(RB3LYP) =  -900.427155047     A.U. after   13 cycles
 SCF Done:  E(RB3LYP) =  -900.432639723     A.U. after   15 cycles
 SCF Done:  E(RB3LYP) =  -900.435776802     A.U. after   13 cycles
 SCF Done:  E(RB3LYP) =  -900.424928966     A.U. after   13 cycles
 SCF Done:  E(RB3LYP) =  -900.433087331     A.U. after   14 cycles
 SCF Done:  E(RB3LYP) =  -900.437410703     A.U. after   11 cycles
 SCF Done:  E(RB3LYP) =  -900.437430118     A.U. after   12 cycles
 SCF Done:  E(RB3LYP) =  -900.438440875     A.U. after   12 cycles
 SCF Done:  E(RB3LYP) =  -900.439608533     A.U. after   10 cycles
 SCF Done:  E(RB3LYP) =  -900.439607531     A.U. after   10 cycles
 SCF Done:  E(RB3LYP) =  -900.439607819     A.U. after    9 cycles
 SCF Done:  E(RB3LYP) =  -900.439607560     A.U. after    9 cycles
 SCF Done:  E(RB3LYP) =  -900.439607786     A.U. after    9 cycles
 SCF Done:  E(RB3LYP) =  -900.439607566     A.U. after    9 cycles
 Optimization completed on the basis of negligible forces.
    -- Stationary point found.
 Normal termination of Gaussian 16 at Sun Dec 13 13:45:11 2020.

 --------------------------------------------------------------------
 #N Geom=AllCheck Guess=TCheck SCRF=Check GenChk RB3LYP/6-31G(d) Freq
 --------------------------------------------------------------------

 Structure from the checkpoint file:  "JID_10606.chk"
 --------------------------------
 CID_150062005_JID_10606_neutraal
 --------------------------------
 Charge =  0 Multiplicity = 1

 SCF Done:  E(RB3LYP) =  -900.439607566     A.U. after    1 cycles

  Exact polarizability: 175.041  23.599 199.586  -9.104  11.821 146.897
 Approx polarizability: 257.330  53.518 305.569 -23.718  20.498 257.812

                      1                      2                      3
                      A                      A                      A
 Frequencies --     19.9012                39.3004                46.7619
 Red. masses --      5.0976                 4.8774                 4.8612
 Frc consts  --      0.0012                 0.0044                 0.0063
 IR Inten    --      0.2629                 0.7684                 2.2933

                      4                      5                      6
                      A                      A                      A
 Frequencies --     57.4063                85.3012                93.0047
 Red. masses --      4.3578                 5.1110                 4.7197
 Frc consts  --      0.0085                 0.0219                 0.0241
 IR Inten    --      0.3989                 0.3764                 1.8321

                      7                      8                      9
                      A                      A                      A
 Frequencies --    122.0328               143.2387               189.5800
 Red. masses --      3.9769                 5.0485                 4.1525
 Frc consts  --      0.0349                 0.0610                 0.0879
 IR Inten    --      1.2289                 0.7962                 2.2773

                     10                     11                     12
                      A                      A                      A
 Frequencies --    204.3659               216.8051               235.9730
 Red. masses --      3.2064                 5.0786                 2.9688
 Frc consts  --      0.0789                 0.1406                 0.0974
 IR Inten    --      2.6765                 0.0810                 7.8150

                     13                     14                     15
                      A                      A                      A
 Frequencies --    258.6297               307.9823               341.7095
 Red. masses --      3.2962                 4.7169                 3.4961
 Frc consts  --      0.1299                 0.2636                 0.2405
 IR Inten    --      4.1444                 7.8497                 6.1828

                     16                     17                     18
                      A                      A                      A
 Frequencies --    346.8428               391.0685               417.3989
 Red. masses --      6.1356                 4.2271                 3.1632
 Frc consts  --      0.4349                 0.3809                 0.3247
 IR Inten    --      1.2257                16.2756                 2.9785

                     19                     20                     21
                      A                      A                      A
 Frequencies --    418.3771               433.2647               500.7980
 Red. masses --      3.6247                 3.9101                 3.7707
 Frc consts  --      0.3738                 0.4325                 0.5572
 IR Inten    --      6.9433                 5.4680                14.4794

                     22                     23                     24
                      A                      A                      A
 Frequencies --    516.1031               526.4718               540.6558
 Red. masses --      1.9695                 2.5896                 4.6816
 Frc consts  --      0.3091                 0.4229                 0.8063
 IR Inten    --     53.3594                49.0675                23.4006

                     25                     26                     27
                      A                      A                      A
 Frequencies --    563.9120               612.8468               614.3163
 Red. masses --      2.9303                 1.8570                 2.8764
 Frc consts  --      0.5490                 0.4109                 0.6396
 IR Inten    --     16.8034                57.4779                42.8981

                     28                     29                     30
                      A                      A                      A
 Frequencies --    631.5394               635.1927               676.4992
 Red. masses --      2.9607                 6.1240                 3.9993
 Frc consts  --      0.6957                 1.4558                 1.0784
 IR Inten    --     46.5170                 0.8673                17.7263

                     31                     32                     33
                      A                      A                      A
 Frequencies --    705.8617               731.1400               743.6655
 Red. masses --      2.0583                 2.8412                 2.6795
 Frc consts  --      0.6042                 0.8949                 0.8731
 IR Inten    --     13.2049                34.5333                70.8946

                     34                     35                     36
                      A                      A                      A
 Frequencies --    766.8316               778.2275               790.8076
 Red. masses --      2.5273                 1.7312                 1.5884
 Frc consts  --      0.8756                 0.6178                 0.5852
 IR Inten    --     10.0682                12.0046                20.9904

                     37                     38                     39
                      A                      A                      A
 Frequencies --    814.8211               844.0761               862.3235
 Red. masses --      3.0263                 2.9031                 1.2481
 Frc consts  --      1.1838                 1.2186                 0.5468
 IR Inten    --      2.1723                 5.9629                 1.0981

                     40                     41                     42
                      A                      A                      A
 Frequencies --    880.3204               894.8285               924.0457
 Red. masses --      2.1342                 2.1859                 3.3356
 Frc consts  --      0.9745                 1.0312                 1.6781
 IR Inten    --      6.1565                 7.6929                 7.6753

                     43                     44                     45
                      A                      A                      A
 Frequencies --    947.7999               956.3339               974.3302
 Red. masses --      1.4118                 1.5020                 2.2283
 Frc consts  --      0.7472                 0.8093                 1.2464
 IR Inten    --      3.9790                 4.0884                47.7893

                     46                     47                     48
                      A                      A                      A
 Frequencies --    977.6687               984.3620              1001.8805
 Red. masses --      1.3566                 1.2668                 1.3033
 Frc consts  --      0.7640                 0.7232                 0.7708
 IR Inten    --      0.5600                 0.4254                 2.2144

                     49                     50                     51
                      A                      A                      A
 Frequencies --   1005.0506              1024.0480              1059.2029
 Red. masses --      2.2215                 6.1335                 2.4443
 Frc consts  --      1.3221                 3.7897                 1.6157
 IR Inten    --     57.3285                 0.9039                 5.3732

                     52                     53                     54
                      A                      A                      A
 Frequencies --   1064.9935              1097.1551              1109.5601
 Red. masses --      1.9987                 2.5831                 2.2259
 Frc consts  --      1.3357                 1.8320                 1.6146
 IR Inten    --      3.9134                52.5593                25.4678

                     55                     56                     57
                      A                      A                      A
 Frequencies --   1118.7424              1131.9167              1138.2011
 Red. masses --      1.5838                 2.1746                 1.9865
 Frc consts  --      1.1679                 1.6415                 1.5162
 IR Inten    --      7.9207                 5.6766                29.5783

                     58                     59                     60
                      A                      A                      A
 Frequencies --   1151.0191              1189.3571              1195.9513
 Red. masses --      3.0793                 1.0984                 1.0980
 Frc consts  --      2.4037                 0.9154                 0.9253
 IR Inten    --      7.5825                 1.5697                 0.2008

                     61                     62                     63
                      A                      A                      A
 Frequencies --   1217.6279              1244.2582              1245.8382
 Red. masses --      1.1449                 2.4171                 1.2191
 Frc consts  --      1.0001                 2.2048                 1.1149
 IR Inten    --     12.5293                40.0376                15.2125

                     64                     65                     66
                      A                      A                      A
 Frequencies --   1270.0356              1292.1302              1297.9811
 Red. masses --      1.1857                 2.5021                 1.7406
 Frc consts  --      1.1268                 2.4613                 1.7278
 IR Inten    --      4.2406                85.7848                36.9573

                     67                     68                     69
                      A                      A                      A
 Frequencies --   1328.8351              1339.4628              1352.2637
 Red. masses --      1.1286                 7.2263                 2.1121
 Frc consts  --      1.1741                 7.6388                 2.2755
 IR Inten    --      2.7939                 1.3021                 8.0564

                     70                     71                     72
                      A                      A                      A
 Frequencies --   1371.1575              1389.6669              1401.1198
 Red. masses --      2.4761                 1.8125                 1.7721
 Frc consts  --      2.7428                 2.0623                 2.0496
 IR Inten    --      1.0650               162.7915               212.3611

                     73                     74                     75
                      A                      A                      A
 Frequencies --   1405.9007              1435.8988              1452.8736
 Red. masses --      1.4424                 1.4514                 1.6117
 Frc consts  --      1.6798                 1.7631                 2.0044
 IR Inten    --     30.4585                35.1896                26.4517

                     76                     77                     78
                      A                      A                      A
 Frequencies --   1476.5222              1495.8575              1496.7999
 Red. masses --      1.3711                 1.1560                 2.0639
 Frc consts  --      1.7611                 1.5240                 2.7244
 IR Inten    --     45.1974                 8.4930                10.9152

                     79                     80                     81
                      A                      A                      A
 Frequencies --   1505.5284              1535.2942              1545.9563
 Red. masses --      2.3566                 1.3481                 1.4825
 Frc consts  --      3.1471                 1.8722                 2.0876
 IR Inten    --     14.4686                51.6201                28.4476

                     82                     83                     84
                      A                      A                      A
 Frequencies --   1547.3614              1549.4895              1636.1652
 Red. masses --      2.0731                 1.4272                 6.3419
 Frc consts  --      2.9245                 2.0188                10.0028
 IR Inten    --      1.8141                18.5391                 2.6076

                     85                     86                     87
                      A                      A                      A
 Frequencies --   1641.1455              1659.0231              1665.9278
 Red. masses --      5.5289                 6.0683                 5.5437
 Frc consts  --      8.7737                 9.8406                 9.0649
 IR Inten    --     14.6208                 5.1725                11.1585

                     88                     89                     90
                      A                      A                      A
 Frequencies --   1730.2958              3004.8359              3034.4856
 Red. masses --      7.4821                 1.0702                 1.0619
 Frc consts  --     13.1982                 5.6933                 5.7611
 IR Inten    --    364.6309                87.4955                33.2778

                     91                     92                     93
                      A                      A                      A
 Frequencies --   3053.1917              3079.6782              3093.0953
 Red. masses --      1.0605                 1.0971                 1.0996
 Frc consts  --      5.8246                 6.1307                 6.1985
 IR Inten    --     39.9559                10.9492                36.0762

                     94                     95                     96
                      A                      A                      A
 Frequencies --   3103.0432              3187.6280              3192.0587
 Red. masses --      1.1018                 1.0857                 1.0857
 Frc consts  --      6.2507                 6.4997                 6.5179
 IR Inten    --     49.6878                 0.3422                 0.2156

                     97                     98                     99
                      A                      A                      A
 Frequencies --   3199.6160              3200.6528              3210.4747
 Red. masses --      1.0901                 1.0900                 1.0953
 Frc consts  --      6.5751                 6.5788                 6.6513
 IR Inten    --     15.2535                 9.9585                28.0472

                    100                    101                    102
                      A                      A                      A
 Frequencies --   3211.6741              3219.2312              3230.5435
 Red. masses --      1.0932                 1.0974                 1.0929
 Frc consts  --      6.6440                 6.7008                 6.7202
 IR Inten    --     16.3441                12.9975                 4.7931

                    103                    104                    105
                      A                      A                      A
 Frequencies --   3242.2327              3552.8998              3595.7660
 Red. masses --      1.0919                 1.0747                 1.0673
 Frc consts  --      6.7625                 7.9926                 8.1306
 IR Inten    --      4.1320                30.1523               366.1602

 - Thermochemistry -
 -------------------
 Temperature   298.150 Kelvin.  Pressure   1.00000 Atm.
 Atom     1 has atomic number  6 and mass  12.00000

 Molecular mass:   271.12084 amu.
 Principal axes and moments of inertia in atomic units:
                           1         2         3
     Eigenvalues --  4867.950624955.242877522.16154
           X            0.92794   0.37258   0.01039
           Y           -0.37270   0.92784   0.01449
           Z           -0.00424  -0.01731   0.99984
 This molecule is an asymmetric top.
 Rotational symmetry number  1.
 Warning -- assumption of classical behavior for rotation
           may cause significant error
 Rotational temperatures (Kelvin)      0.01779     0.01748     0.01151
 Rotational constants (GHZ):           0.37074     0.36421     0.23992
 Zero-point vibrational energy     801458.1 (Joules/Mol)
                                  191.55308 (Kcal/Mol)
 Warning -- explicit consideration of  27 degrees of freedom as
           vibrations may cause significant error
 Vibrational temperatures:     28.63    56.54    67.28    82.59   122.73
          (Kelvin)            133.81   175.58   206.09   272.76   294.04
                              311.93   339.51   372.11   443.12   491.64
                              499.03   562.66   600.54   601.95   623.37
                              720.54   742.56   757.48   777.88   811.34
                              881.75   883.86   908.64   913.90   973.33
                             1015.58  1051.95  1069.97  1103.30  1119.70
                             1137.80  1172.35  1214.44  1240.69  1266.58
                             1287.46  1329.50  1363.67  1375.95  1401.84
                             1406.65  1416.28  1441.48  1446.04  1473.38
                             1523.96  1532.29  1578.56  1596.41  1609.62
                             1628.58  1637.62  1656.06  1711.22  1720.71
                             1751.89  1790.21  1792.48  1827.30  1859.09
                             1867.51  1911.90  1927.19  1945.61  1972.79
                             1999.42  2015.90  2022.78  2065.94  2090.36
                             2124.39  2152.21  2153.56  2166.12  2208.95
                             2224.29  2226.31  2229.37  2354.08  2361.24
                             2386.96  2396.90  2489.51  4323.29  4365.95
                             4392.86  4430.97  4450.27  4464.59  4586.29
                             4592.66  4603.53  4605.03  4619.16  4620.88
                             4631.76  4648.03  4664.85  5111.83  5173.51

 Zero-point correction=                           0.305259 (Hartree/Particle)
 Thermal correction to Energy=                    0.322745
 Thermal correction to Enthalpy=                  0.323689
 Thermal correction to Gibbs Free Energy=         0.258437
 Sum of electronic and zero-point Energies=           -900.134348
 Sum of electronic and thermal Energies=              -900.116863
 Sum of electronic and thermal Enthalpies=            -900.115919
 Sum of electronic and thermal Free Energies=         -900.181170

                     E (Thermal)             CV                S
                      KCal/Mol        Cal/Mol-Kelvin    Cal/Mol-Kelvin
 Total                  202.525             68.211            137.334
 Electronic               0.000              0.000              0.000
 Translational            0.889              2.981             42.691
 Rotational               0.889              2.981             33.561
 Vibrational            200.748             62.249             61.081
 Vibration     1          0.593              1.986              6.644
 Vibration     2          0.594              1.981              5.294
 Vibration     3          0.595              1.979              4.950
 Vibration     4          0.596              1.975              4.544
 Vibration     5          0.601              1.959              3.765
 Vibration     6          0.602              1.954              3.596
 Vibration     7          0.610              1.931              3.068
 Vibration     8          0.616              1.910              2.760
 Vibration     9          0.633              1.854              2.232
 Vibration    10          0.640              1.834              2.093
 Vibration    11          0.646              1.815              1.986
 Vibration    12          0.655              1.786              1.833
 Vibration    13          0.667              1.748              1.671
 Vibration    14          0.698              1.659              1.373
 Vibration    15          0.721              1.592              1.204
 Vibration    16          0.725              1.582              1.180
 Vibration    17          0.759              1.489              0.996
 Vibration    18          0.780              1.432              0.901
 Vibration    19          0.781              1.430              0.897
 Vibration    20          0.794              1.398              0.848
 Vibration    21          0.856              1.248              0.656
 Vibration    22          0.871              1.214              0.619
 Vibration    23          0.881              1.191              0.595
 Vibration    24          0.896              1.160              0.564
 Vibration    25          0.920              1.109              0.516
 Vibration    26          0.972              1.005              0.428
 Vibration    27          0.974              1.002              0.426

 Optimization completed.
    -- Stationary point found.
 Normal termination of Gaussian 16 at Sun Dec 13 14:06:00 2020.

 ----------------------------------------------------------------------
 # B3LYP/6-311++G(d,p) empiricaldispersion=gd3bj scf=xqc pop=npa geom=c
 heck
 ----------------------------------------------------------------------

 ----------------------------------------
 CID_150062005_JID_10606_Energie_neutraal
 ----------------------------------------
 Structure from the checkpoint file:  "JID_10606.chk"
 Charge =  0 Multiplicity = 1

 SCF Done:  E(RB3LYP) =  -900.694790512     A.U. after   17 cycles
 Normal termination of Gaussian 16 at Sun Dec 13 14:15:44 2020.

 ----------------------------------------------------------------------
 # B3LYP/6-311++G(d,p) empiricaldispersion=gd3bj scf=xqc pop=npa geom=c
 heck
 ----------------------------------------------------------------------

 --------------------------------------
 CID_150062005_JID_10606_Energie_kation
 --------------------------------------
 Structure from the checkpoint file:  "JID_10606.chk"
 Charge =  1 Multiplicity = 2

 SCF Done:  E(UB3LYP) =  -900.387436458     A.U. after   32 cycles
 Normal termination of Gaussian 16 at Sun Dec 13 14:41:11 2020.
 Gaussian 16:  ES64L-G16RevA.03 25-Dec-2016

 ----------------------------------------------------------------------
 # B3LYP/6-311++G(d,p) empiricaldispersion=gd3bj scf=xqc pop=npa geom=c
 heck
 ----------------------------------------------------------------------

 -------------------------------------
 CID_150062005_JID_10606_Energie_anion
 -------------------------------------
 Structure from the checkpoint file:  "JID_10606.chk"
 Charge = -1 Multiplicity = 2

                         Standard orientation:
 ---------------------------------------------------------------------
 Center     Atomic      Atomic             Coordinates (Angstroms)
 Number     Number       Type             X           Y           Z
 ---------------------------------------------------------------------
      1          6           0        3.345887   -2.055139   -1.119808
      2          6           0        2.219589   -2.873054   -1.005476
      3          6           0        1.159209   -2.485848   -0.192441
      4          6           0        1.201282   -1.265808    0.495686
      5          6           0        2.339485   -0.456087    0.389385
      6          6           0        3.407259   -0.853532   -0.413205
      7          6           0        0.028802   -0.940589    1.360651
      8          8           0       -0.652037   -1.841759    1.862387
      9          7           0       -0.262923    0.373871    1.635951
     10          6           0        0.067952    1.497418    0.819878
     11          6           0        0.771778    2.573248    1.364695
     12          6           0        1.112046    3.668716    0.572536
     13          6           0        0.759533    3.683043   -0.778434
     14          6           0        0.044459    2.619059   -1.326623
     15          6           0       -0.316989    1.530620   -0.531477
     16          8           0       -1.040200    0.494216   -1.062000
     17          6           0       -2.467644    0.710765   -0.972316
     18          6           0       -3.189054   -0.560338   -1.374600
     19          6           0       -2.885876   -1.727221   -0.434615
     20          8           0       -3.194399   -1.363439    0.902663
     21          1           0        4.176437   -2.357462   -1.751555
     22          1           0        2.171429   -3.814154   -1.545472
     23          1           0        0.287205   -3.118845   -0.072675
     24          1           0        2.401932    0.474655    0.938821
     25          1           0        4.288691   -0.222960   -0.484633
     26          1           0       -1.087623    0.459125    2.222169
     27          1           0        1.060632    2.528271    2.410696
     28          1           0        1.662341    4.498980    1.004323
     29          1           0        1.036530    4.525566   -1.405299
     30          1           0       -0.247468    2.614053   -2.372094
     31          1           0       -2.727568    0.966838    0.060473
     32          1           0       -2.740101    1.552370   -1.623211
     33          1           0       -4.265444   -0.346366   -1.357800
     34          1           0       -2.923429   -0.836426   -2.402874
     35          1           0       -3.480139   -2.602284   -0.740761
     36          1           0       -1.828563   -1.997500   -0.532978
     37          1           0       -2.437616   -1.644621    1.453787
 ---------------------------------------------------------------------

 SCF Done:  E(UB3LYP) =  -900.699755309     A.U. after   32 cycles

 The electronic state is 2-A.
 Alpha  occ. eigenvalues --  -19.02350 -18.98723 -18.94132 -14.20267 -10.11462
 Alpha  occ. eigenvalues --  -10.11337 -10.11223 -10.09685 -10.08648 -10.06604
 Alpha  occ. eigenvalues --  -10.06423 -10.05950 -10.05701 -10.05571 -10.03832
 Alpha  occ. eigenvalues --  -10.03667 -10.03345 -10.03105 -10.02942 -10.02820
 Alpha  occ. eigenvalues --   -0.94244  -0.89922  -0.88763  -0.79655  -0.73132
 Alpha  occ. eigenvalues --   -0.71678  -0.67770  -0.63195  -0.62059  -0.61625
 Alpha  occ. eigenvalues --   -0.60955  -0.56573  -0.51004  -0.50097  -0.49157
 Alpha  occ. eigenvalues --   -0.47227  -0.47004  -0.43930  -0.42454  -0.40616
 Alpha  occ. eigenvalues --   -0.38881  -0.38400  -0.37762  -0.35235  -0.35143
 Alpha  occ. eigenvalues --   -0.34304  -0.33480  -0.32124  -0.31557  -0.30573
 Alpha  occ. eigenvalues --   -0.29966  -0.28956  -0.28334  -0.28060  -0.27313
 Alpha  occ. eigenvalues --   -0.26931  -0.26201  -0.25085  -0.24685  -0.23100
 Alpha  occ. eigenvalues --   -0.22667  -0.21839  -0.20959  -0.20609  -0.16821
 Alpha  occ. eigenvalues --   -0.15617  -0.15368  -0.13910  -0.13042  -0.12789
 Alpha  occ. eigenvalues --   -0.11681  -0.11231   0.04756
 Alpha virt. eigenvalues --    0.07533   0.08099   0.08711   0.08932   0.09226
 Alpha virt. eigenvalues --    0.09733   0.09983   0.10506   0.10746   0.10906
 Alpha virt. eigenvalues --    0.11935   0.12135   0.12508   0.12626   0.13374

  Beta  occ. eigenvalues --  -19.02346 -18.98716 -18.93879 -14.20276 -10.11337
  Beta  occ. eigenvalues --  -10.11253 -10.11147 -10.09684 -10.08512 -10.06603
  Beta  occ. eigenvalues --  -10.06464 -10.05819 -10.05621 -10.05456 -10.03902
  Beta  occ. eigenvalues --  -10.03695 -10.03239 -10.03003 -10.02656 -10.02650
  Beta  occ. eigenvalues --   -0.94233  -0.89625  -0.88547  -0.79410  -0.72964
  Beta  occ. eigenvalues --   -0.71396  -0.67753  -0.62936  -0.61823  -0.61274
  Beta  occ. eigenvalues --   -0.60710  -0.56547  -0.50495  -0.49868  -0.48846
  Beta  occ. eigenvalues --   -0.47175  -0.46908  -0.43707  -0.42354  -0.40529
  Beta  occ. eigenvalues --   -0.38790  -0.38314  -0.37649  -0.35167  -0.35031
  Beta  occ. eigenvalues --   -0.34008  -0.33417  -0.32025  -0.31373  -0.30517
  Beta  occ. eigenvalues --   -0.29700  -0.28863  -0.28249  -0.27843  -0.26901
  Beta  occ. eigenvalues --   -0.26782  -0.25761  -0.24872  -0.24327  -0.22946
  Beta  occ. eigenvalues --   -0.21949  -0.21641  -0.20807  -0.20523  -0.16680
  Beta  occ. eigenvalues --   -0.15384  -0.14867  -0.13439  -0.12358  -0.12151
  Beta  occ. eigenvalues --   -0.11105  -0.10297
  Beta virt. eigenvalues --    0.07486   0.08055   0.08752   0.08983   0.09344
  Beta virt. eigenvalues --    0.09843   0.10074   0.10432   0.10554   0.10820
  Beta virt. eigenvalues --    0.11027   0.11932   0.12473   0.12506   0.12656

 Mulliken charges and spin densities:
               1          2
     1  C   -0.370520   0.223352
     2  C   -0.390469  -0.043695
     3  C   -0.110310   0.170125
     4  C    1.572072   0.065265
     5  C   -0.170720   0.084053
     6  C   -0.572858  -0.020779
     7  C   -1.262394   0.126573
     8  O   -0.329689   0.090945
     9  N   -0.217301  -0.017372
    10  C    0.921716  -0.078037
    11  C    0.048302   0.138295
    12  C   -0.204864  -0.047743
    13  C   -0.418089   0.087865
    14  C   -0.420050   0.064996
    15  C   -0.625951   0.048506
    16  O    0.122955   0.001894
    17  C   -0.282509  -0.001283
    18  C   -0.235508  -0.011214
    19  C   -0.385910   0.003793
    20  O   -0.212038  -0.001301
    21  H    0.103348  -0.018378
    22  H    0.121696   0.005902
    23  H    0.165063  -0.010026
    24  H    0.151975  -0.006603
    25  H    0.128987   0.000164
    26  H    0.257319   0.081436
    27  H    0.085246   0.059846
    28  H    0.134278   0.004486
    29  H    0.122072  -0.007898
    30  H    0.153146  -0.005402
    31  H    0.151689   0.000264
    32  H    0.154252   0.000560
    33  H    0.145515  -0.000968
    34  H    0.118453   0.004561
    35  H    0.123101   0.007775
    36  H    0.161654  -0.003089
    37  H    0.266341   0.003132
 Sum of Mulliken charges =  -1.00000   1.00000

 Dipole moment (field-independent basis, Debye):
    X=             -1.6381    Y=              3.7039    Z=             -2.9707  Tot=              5.0227
 Quadrupole moment (field-independent basis, Debye-Ang):
   XX=           -148.6221   YY=           -147.2214   ZZ=           -135.2548
   XY=              2.6992   XZ=              7.7275   YZ=              6.6807

 Summary of Natural Population Analysis:

                                       Natural Population
                Natural  -----------------------------------------------
    Atom  No    Charge         Core      Valence    Rydberg      Total
 -----------------------------------------------------------------------
      C    1   -0.05061      0.99957     2.04163    0.00940     3.05061
      C    2   -0.12812      0.99957     2.11945    0.00910     3.12812
      C    3   -0.04910      0.99954     2.04125    0.00831     3.04910
      C    4   -0.05382      0.99946     2.04296    0.01140     3.05382
      C    5   -0.06712      0.99954     2.05990    0.00768     3.06712
      C    6   -0.12003      0.99957     2.11128    0.00918     3.12003
      C    7    0.38733      0.99961     1.58803    0.02504     2.61267
      O    8   -0.33287      0.99986     3.32749    0.00552     4.33287
      N    9   -0.32501      0.99964     2.81475    0.01063     3.82501
      C   10    0.07532      0.99940     1.91277    0.01251     2.92468
      C   11   -0.08646      0.99952     2.07555    0.01139     3.08646
      C   12   -0.11828      0.99957     2.11033    0.00838     3.11828
      C   13   -0.08277      0.99958     2.07467    0.00852     3.08277
      C   14   -0.10682      0.99952     2.09905    0.00825     3.10682
      C   15    0.15038      0.99931     1.83475    0.01556     2.84962
      O   16   -0.29492      0.99986     3.28371    0.01135     4.29492
      C   17   -0.00744      0.99956     1.99820    0.00968     3.00744
      C   18   -0.20707      0.99962     2.20005    0.00739     3.20707
      C   19   -0.01363      0.99960     2.00225    0.01178     3.01363
      O   20   -0.39553      0.99989     3.38809    0.00755     4.39553
      H   21    0.08633      0.00000     0.41263    0.00104     0.41367
      H   22    0.09093      0.00000     0.40806    0.00101     0.40907
      H   23    0.10141      0.00000     0.39758    0.00102     0.39859
      H   24    0.10045      0.00000     0.39824    0.00131     0.39955
      H   25    0.09151      0.00000     0.40747    0.00101     0.40849
      H   26    0.19362      0.00000     0.30353    0.00285     0.30638
      H   27    0.10102      0.00000     0.39790    0.00108     0.39898
      H   28    0.09470      0.00000     0.40440    0.00090     0.40530
      H   29    0.09208      0.00000     0.40693    0.00099     0.40792
      H   30    0.09844      0.00000     0.40015    0.00141     0.40156
      H   31    0.09152      0.00000     0.40727    0.00121     0.40848
      H   32    0.07848      0.00000     0.42027    0.00126     0.42152
      H   33    0.09471      0.00000     0.40416    0.00112     0.40529
      H   34    0.09734      0.00000     0.40152    0.00113     0.40266
      H   35    0.06823      0.00000     0.43025    0.00151     0.43177
      H   36    0.09382      0.00000     0.40442    0.00175     0.40618
      H   37    0.25196      0.00000     0.24523    0.00281     0.24804
 =======================================================================
   * Total *    0.00000     19.99180    51.77618    0.23202    72.00000

 Normal termination of Gaussian 16 at Sun Dec 13 15:06:07 2020.
