 Gaussian 16, Revision A.03,

 -----------------------------------------------------------
 # opt freq B3LYP/6-31G(d) empiricaldispersion=gd3bj scf=xqc
 -----------------------------------------------------------

 -------------------------------
 CID_107433759_JID_7593_neutraal
 -------------------------------
 Symbolic Z-matrix:
 Charge =  0 Multiplicity = 1

 SCF Done:  E(RB3LYP) =  -854.106443172     A.U. after   15 cycles
 SCF Done:  E(RB3LYP) =  -854.108604386     A.U. after   14 cycles
 SCF Done:  E(RB3LYP) =  -854.111303401     A.U. after   14 cycles
 SCF Done:  E(RB3LYP) =  -854.114904329     A.U. after   13 cycles
 SCF Done:  E(RB3LYP) =  -854.114661693     A.U. after   13 cycles
 SCF Done:  E(RB3LYP) =  -854.116302733     A.U. after   12 cycles
 SCF Done:  E(RB3LYP) =  -854.114307859     A.U. after   13 cycles
 SCF Done:  E(RB3LYP) =  -854.116710627     A.U. after   13 cycles
 SCF Done:  E(RB3LYP) =  -854.117083282     A.U. after   12 cycles
 SCF Done:  E(RB3LYP) =  -854.117334572     A.U. after   12 cycles
 SCF Done:  E(RB3LYP) =  -854.117833104     A.U. after    8 cycles
 SCF Done:  E(RB3LYP) =  -854.117833340     A.U. after    8 cycles
 SCF Done:  E(RB3LYP) =  -854.117833454     A.U. after    7 cycles
 SCF Done:  E(RB3LYP) =  -854.117833515     A.U. after    8 cycles
 SCF Done:  E(RB3LYP) =  -854.117833544     A.U. after    7 cycles
 Optimization completed.
    -- Stationary point found.
 Normal termination of Gaussian 16 at Fri Dec 11 12:55:47 2020.

 --------------------------------------------------------------------
 #N Geom=AllCheck Guess=TCheck SCRF=Check GenChk RB3LYP/6-31G(d) Freq
 --------------------------------------------------------------------

 Structure from the checkpoint file:  "JID_7593.chk"
 -------------------------------
 CID_107433759_JID_7593_neutraal
 -------------------------------
 Charge =  0 Multiplicity = 1

 SCF Done:  E(RB3LYP) =  -854.117833544     A.U. after    1 cycles

  Exact polarizability: 160.783  -3.689 131.418   1.174  12.307  99.862
 Approx polarizability: 225.621 -18.981 214.280   3.282  20.349 153.915

                      1                      2                      3
                      A                      A                      A
 Frequencies --     35.2847                46.8726                60.5718
 Red. masses --      4.8188                 6.9532                 6.9900
 Frc consts  --      0.0035                 0.0090                 0.0151
 IR Inten    --      1.8724                 4.5389                 1.0216

                      4                      5                      6
                      A                      A                      A
 Frequencies --     70.0196                98.7986               109.1256
 Red. masses --      9.4028                 6.9812                 6.9421
 Frc consts  --      0.0272                 0.0401                 0.0487
 IR Inten    --      0.3733                 2.6773                 2.9731

                      7                      8                      9
                      A                      A                      A
 Frequencies --    116.8199               127.6043               174.6896
 Red. masses --      4.4337                 4.1206                 1.3554
 Frc consts  --      0.0356                 0.0395                 0.0244
 IR Inten    --      5.1037                 0.5347                 2.3364

                     10                     11                     12
                      A                      A                      A
 Frequencies --    189.7940               205.8036               225.9291
 Red. masses --      4.3659                 2.4096                 4.0758
 Frc consts  --      0.0927                 0.0601                 0.1226
 IR Inten    --      0.4243                 4.5459                 4.3766

                     13                     14                     15
                      A                      A                      A
 Frequencies --    295.9635               320.1535               344.9654
 Red. masses --      3.8134                 3.7026                 3.6095
 Frc consts  --      0.1968                 0.2236                 0.2531
 IR Inten    --      7.6091                 5.9811                 0.9000

                     16                     17                     18
                      A                      A                      A
 Frequencies --    360.9209               375.3403               409.0935
 Red. masses --      6.9004                 3.6607                 4.9839
 Frc consts  --      0.5296                 0.3039                 0.4914
 IR Inten    --     12.2231                 5.8792                 0.9370

                     19                     20                     21
                      A                      A                      A
 Frequencies --    462.5834               490.6124               517.1619
 Red. masses --      1.1381                 2.0402                 5.3938
 Frc consts  --      0.1435                 0.2893                 0.8500
 IR Inten    --    185.1922                23.4331                11.4686

                     22                     23                     24
                      A                      A                      A
 Frequencies --    530.0599               552.0353               580.6095
 Red. masses --      2.1684                 2.9112                 3.3605
 Frc consts  --      0.3590                 0.5227                 0.6675
 IR Inten    --     36.6637                42.2992                 3.0120

                     25                     26                     27
                      A                      A                      A
 Frequencies --    608.4385               614.6391               647.1392
 Red. masses --      2.2801                 3.4285                 4.5885
 Frc consts  --      0.4973                 0.7631                 1.1322
 IR Inten    --     66.8639                 3.3573                 1.0846

                     28                     29                     30
                      A                      A                      A
 Frequencies --    684.6441               704.0059               729.0092
 Red. masses --      2.2547                 3.7918                 1.3244
 Frc consts  --      0.6227                 1.1073                 0.4147
 IR Inten    --     68.8255                26.5274                 2.7997

                     31                     32                     33
                      A                      A                      A
 Frequencies --    730.0578               762.4978               769.3527
 Red. masses --      1.2378                 3.8770                 4.4240
 Frc consts  --      0.3887                 1.3281                 1.5428
 IR Inten    --     50.7596                30.4308                 2.5423

                     34                     35                     36
                      A                      A                      A
 Frequencies --    813.9519               864.1632               865.7488
 Red. masses --      1.5757                 3.8194                 4.0675
 Frc consts  --      0.6151                 1.6805                 1.7962
 IR Inten    --      5.9685                 6.4980                16.1606

                     37                     38                     39
                      A                      A                      A
 Frequencies --    879.3358               907.3376               975.9509
 Red. masses --      1.3112                 5.3762                 3.0060
 Frc consts  --      0.5974                 2.6077                 1.6869
 IR Inten    --      1.4134                 3.0384                 8.5854

                     40                     41                     42
                      A                      A                      A
 Frequencies --    984.6370              1019.2789              1053.9512
 Red. masses --      2.2511                 2.2536                 1.6748
 Frc consts  --      1.2859                 1.3794                 1.0961
 IR Inten    --     18.0901                39.7198                23.5038

                     43                     44                     45
                      A                      A                      A
 Frequencies --   1089.4403              1106.7227              1125.4916
 Red. masses --      1.6857                 1.7885                 1.2612
 Frc consts  --      1.1788                 1.2906                 0.9413
 IR Inten    --     30.5019                 3.1489                 8.0703

                     46                     47                     48
                      A                      A                      A
 Frequencies --   1162.9492              1169.8070              1189.3393
 Red. masses --      1.2881                 2.3810                 2.3714
 Frc consts  --      1.0264                 1.9197                 1.9763
 IR Inten    --      1.2688                60.8737               165.4381

                     49                     50                     51
                      A                      A                      A
 Frequencies --   1229.9280              1245.8931              1280.0473
 Red. masses --      2.3921                 1.7388                 1.7250
 Frc consts  --      2.1320                 1.5902                 1.6653
 IR Inten    --     36.8326                48.0552                44.4999

                     52                     53                     54
                      A                      A                      A
 Frequencies --   1325.6479              1343.2843              1355.4202
 Red. masses --      1.5832                 2.3658                 1.7838
 Frc consts  --      1.6392                 2.5152                 1.9309
 IR Inten    --     13.6538                27.8548                29.2311

                     55                     56                     57
                      A                      A                      A
 Frequencies --   1371.5598              1382.5942              1387.9251
 Red. masses --      2.5892                 1.5439                 3.3082
 Frc consts  --      2.8697                 1.7388                 3.7547
 IR Inten    --    185.0427                14.4671                86.7349

                     58                     59                     60
                      A                      A                      A
 Frequencies --   1419.4840              1439.0349              1469.4984
 Red. masses --      3.5381                 2.3744                 2.0226
 Frc consts  --      4.2003                 2.8970                 2.5734
 IR Inten    --      9.6049                89.1618                22.8461

                     61                     62                     63
                      A                      A                      A
 Frequencies --   1472.2631              1490.9754              1498.8156
 Red. masses --      2.2750                 1.1994                 1.1262
 Frc consts  --      2.9054                 1.5709                 1.4907
 IR Inten    --     54.1126                34.9374                11.1553

                     64                     65                     66
                      A                      A                      A
 Frequencies --   1523.6270              1526.8921              1547.3027
 Red. masses --      1.1420                 1.8865                 1.0917
 Frc consts  --      1.5620                 2.5913                 1.5400
 IR Inten    --     42.3303                32.8560                16.4913

                     67                     68                     69
                      A                      A                      A
 Frequencies --   1594.1606              1653.3978              1729.6468
 Red. masses --      4.3405                 1.2726                11.2632
 Frc consts  --      6.4991                 2.0498                19.8529
 IR Inten    --     56.0356                99.3672               243.5037

                     70                     71                     72
                      A                      A                      A
 Frequencies --   1807.5433              1878.9785              3049.6321
 Red. masses --      8.6358                10.1022                 1.0730
 Frc consts  --     16.6238                21.0141                 5.8797
 IR Inten    --    316.3560               320.9054                19.7182

                     73                     74                     75
                      A                      A                      A
 Frequencies --   3072.2510              3082.4152              3132.6316
 Red. masses --      1.0369                 1.0584                 1.1056
 Frc consts  --      5.7664                 5.9247                 6.3927
 IR Inten    --     31.8928                12.6009                 3.3748

                     76                     77                     78
                      A                      A                      A
 Frequencies --   3135.5074              3162.0748              3189.5418
 Red. masses --      1.1046                 1.0904                 1.1009
 Frc consts  --      6.3985                 6.4236                 6.5984
 IR Inten    --     15.0812                 2.6482                 3.6620

                     79                     80                     81
                      A                      A                      A
 Frequencies --   3258.6170              3273.2075              3282.8161
 Red. masses --      1.0889                 1.0967                 1.1042
 Frc consts  --      6.8126                 6.9232                 7.0111
 IR Inten    --      2.4676                 2.1567                 2.6186

                     82                     83                     84
                      A                      A                      A
 Frequencies --   3554.7283              3685.9571              3691.1592
 Red. masses --      1.0474                 1.0953                 1.0724
 Frc consts  --      7.7982                 8.7674                 8.6086
 IR Inten    --    123.8801               118.3734                60.6632

 - Thermochemistry -
 -------------------
 Temperature   298.150 Kelvin.  Pressure   1.00000 Atm.
 Atom     1 has atomic number  6 and mass  12.00000

 Molecular mass:   239.09061 amu.
 Principal axes and moments of inertia in atomic units:
                           1         2         3
     Eigenvalues --  2884.178014569.700026301.30404
           X            0.99990   0.01365  -0.00360
           Y           -0.01357   0.99967   0.02199
           Z            0.00390  -0.02193   0.99975
 This molecule is an asymmetric top.
 Rotational symmetry number  1.
 Warning -- assumption of classical behavior for rotation
           may cause significant error
 Rotational temperatures (Kelvin)      0.03003     0.01895     0.01375
 Rotational constants (GHZ):           0.62574     0.39494     0.28641
 Zero-point vibrational energy     626264.0 (Joules/Mol)
                                  149.68068 (Kcal/Mol)
 Warning -- explicit consideration of  26 degrees of freedom as
           vibrations may cause significant error
 Vibrational temperatures:     50.77    67.44    87.15   100.74   142.15
          (Kelvin)            157.01   168.08   183.59   251.34   273.07
                              296.11   325.06   425.83   460.63   496.33
                              519.28   540.03   588.59   665.55   705.88
                              744.08   762.64   794.26   835.37   875.41
                              884.33   931.09   985.05  1012.91  1048.88
                             1050.39  1097.06  1106.93  1171.10  1243.34
                             1245.62  1265.17  1305.46  1404.18  1416.67
                             1466.52  1516.40  1567.46  1592.33  1619.33
                             1673.22  1683.09  1711.19  1769.59  1792.56
                             1841.70  1907.31  1932.69  1950.15  1973.37
                             1989.24  1996.91  2042.32  2070.45  2114.28
                             2118.26  2145.18  2156.46  2192.16  2196.86
                             2226.22  2293.64  2378.87  2488.58  2600.65
                             2703.43  4387.74  4420.28  4434.91  4507.16
                             4511.30  4549.52  4589.04  4688.42  4709.42
                             4723.24  5114.46  5303.27  5310.75

 Zero-point correction=                           0.238531 (Hartree/Particle)
 Thermal correction to Energy=                    0.254985
 Thermal correction to Enthalpy=                  0.255929
 Thermal correction to Gibbs Free Energy=         0.193641
 Sum of electronic and zero-point Energies=           -853.879302
 Sum of electronic and thermal Energies=              -853.862849
 Sum of electronic and thermal Enthalpies=            -853.861905
 Sum of electronic and thermal Free Energies=         -853.924192

                     E (Thermal)             CV                S
                      KCal/Mol        Cal/Mol-Kelvin    Cal/Mol-Kelvin
 Total                  160.005             61.052            131.095
 Electronic               0.000              0.000              0.000
 Translational            0.889              2.981             42.316
 Rotational               0.889              2.981             32.785
 Vibrational            158.228             55.091             55.994
 Vibration     1          0.594              1.982              5.508
 Vibration     2          0.595              1.979              4.945
 Vibration     3          0.597              1.973              4.438
 Vibration     4          0.598              1.968              4.153
 Vibration     5          0.604              1.950              3.478
 Vibration     6          0.606              1.942              3.284
 Vibration     7          0.608              1.935              3.152
 Vibration     8          0.611              1.926              2.982
 Vibration     9          0.627              1.874              2.384
 Vibration    10          0.633              1.854              2.230
 Vibration    11          0.640              1.832              2.081
 Vibration    12          0.650              1.802              1.911
 Vibration    13          0.690              1.681              1.440
 Vibration    14          0.706              1.635              1.309
 Vibration    15          0.723              1.586              1.189
 Vibration    16          0.735              1.553              1.118
 Vibration    17          0.746              1.523              1.058
 Vibration    18          0.773              1.450              0.930
 Vibration    19          0.820              1.333              0.759
 Vibration    20          0.846              1.271              0.682
 Vibration    21          0.872              1.212              0.617
 Vibration    22          0.885              1.183              0.587
 Vibration    23          0.907              1.135              0.540
 Vibration    24          0.937              1.073              0.484
 Vibration    25          0.967              1.014              0.435
 Vibration    26          0.974              1.001              0.425

 Optimization completed.
    -- Stationary point found.
 Normal termination of Gaussian 16 at Fri Dec 11 13:08:46 2020.

 ----------------------------------------------------------------------
 # B3LYP/6-311++G(d,p) empiricaldispersion=gd3bj scf=xqc pop=npa geom=c
 heck
 ----------------------------------------------------------------------

 ---------------------------------------
 CID_107433759_JID_7593_Energie_neutraal
 ---------------------------------------
 Structure from the checkpoint file:  "JID_7593.chk"
 Charge =  0 Multiplicity = 1

 SCF Done:  E(RB3LYP) =  -854.380329689     A.U. after   16 cycles
 Normal termination of Gaussian 16 at Fri Dec 11 13:14:53 2020.

 ----------------------------------------------------------------------
 # B3LYP/6-311++G(d,p) empiricaldispersion=gd3bj scf=xqc pop=npa geom=c
 heck
 ----------------------------------------------------------------------

 -------------------------------------
 CID_107433759_JID_7593_Energie_kation
 -------------------------------------
 Structure from the checkpoint file:  "JID_7593.chk"
 Charge =  1 Multiplicity = 2

 SCF Done:  E(UB3LYP) =  -854.076634961     A.U. after   28 cycles
 Normal termination of Gaussian 16 at Fri Dec 11 13:29:47 2020.
 Gaussian 16:  ES64L-G16RevA.03 25-Dec-2016

 ----------------------------------------------------------------------
 # B3LYP/6-311++G(d,p) empiricaldispersion=gd3bj scf=xqc pop=npa geom=c
 heck
 ----------------------------------------------------------------------

 ------------------------------------
 CID_107433759_JID_7593_Energie_anion
 ------------------------------------
 Structure from the checkpoint file:  "JID_7593.chk"
 Charge = -1 Multiplicity = 2

                         Standard orientation:
 ---------------------------------------------------------------------
 Center     Atomic      Atomic             Coordinates (Angstroms)
 Number     Number       Type             X           Y           Z
 ---------------------------------------------------------------------
      1          6           0       -1.512728    1.105412    1.489260
      2          7           0       -2.215218    0.177062    0.615617
      3          6           0       -3.582237    0.074171    0.557786
      4          6           0       -3.917800   -1.006698   -0.234254
      5          6           0       -2.706270   -1.603778   -0.654849
      6          6           0       -1.661645   -0.855814   -0.132579
      7          6           0       -0.230289   -1.148263   -0.347046
      8          8           0        0.192551   -2.301147   -0.296371
      9          7           0        0.653166   -0.115771   -0.648371
     10          6           0        0.246181    1.170248   -1.196485
     11          6           0        0.752479    2.414161   -0.453800
     12          8           0        0.406481    3.524453   -0.830510
     13          7           0        1.605241    2.199517    0.585491
     14          6           0        2.007268   -0.568248   -0.940313
     15          6           0        2.708720   -1.204423    0.246284
     16          8           0        3.588782   -2.022697    0.172804
     17          8           0        2.301372   -0.666316    1.434796
     18          1           0       -1.445247    2.102887    1.043749
     19          1           0       -2.044219    1.177912    2.441601
     20          1           0       -0.507665    0.732267    1.681027
     21          1           0       -4.202391    0.768147    1.107553
     22          1           0       -4.921082   -1.331408   -0.471949
     23          1           0       -2.579248   -2.473343   -1.283518
     24          1           0        0.584048    1.267538   -2.236823
     25          1           0       -0.842187    1.223893   -1.224765
     26          1           0        1.765148    1.280859    0.981432
     27          1           0        1.905043    3.012673    1.105177
     28          1           0        2.028186   -1.304560   -1.748674
     29          1           0        2.600844    0.301751   -1.239027
     30          1           0        2.820888   -1.119225    2.125293
 ---------------------------------------------------------------------

 SCF Done:  E(UB3LYP) =  -854.376686651     A.U. after   33 cycles
 SCF Done:  E(UB3LYP) =  -854.376686651     a.u. after    1 cycles

 The electronic state is 2-A.
 Alpha  occ. eigenvalues --  -19.07720 -19.02325 -18.99803 -18.99803 -14.28229
 Alpha  occ. eigenvalues --  -14.26150 -14.23512 -10.21630 -10.18578 -10.18362
 Alpha  occ. eigenvalues --  -10.13276 -10.13145 -10.12080 -10.11375 -10.11015
 Alpha  occ. eigenvalues --  -10.07738 -10.07542  -1.01709  -0.95491  -0.94805
 Alpha  occ. eigenvalues --   -0.93057  -0.90393  -0.85632  -0.80909  -0.72237
 Alpha  occ. eigenvalues --   -0.68462  -0.65923  -0.62563  -0.60851  -0.54238
 Alpha  occ. eigenvalues --   -0.51043  -0.50313  -0.49691  -0.46694  -0.45662
 Alpha  occ. eigenvalues --   -0.45199  -0.42100  -0.39782  -0.39515  -0.38822
 Alpha  occ. eigenvalues --   -0.37869  -0.36835  -0.36026  -0.34637  -0.34262
 Alpha  occ. eigenvalues --   -0.34119  -0.33409  -0.32070  -0.31740  -0.30782
 Alpha  occ. eigenvalues --   -0.30347  -0.29798  -0.29487  -0.28524  -0.27541
 Alpha  occ. eigenvalues --   -0.23589  -0.20392  -0.18541  -0.18234  -0.17950
 Alpha  occ. eigenvalues --   -0.16127  -0.15477  -0.13477   0.03907
 Alpha virt. eigenvalues --    0.05787   0.06338   0.07186   0.07724   0.08310
 Alpha virt. eigenvalues --    0.08528   0.09310   0.09604   0.10291   0.10585
 Alpha virt. eigenvalues --    0.11422   0.11807   0.12636   0.12751   0.13554

  Beta  occ. eigenvalues --  -19.07659 -19.02299 -18.99794 -18.99741 -14.28191
  Beta  occ. eigenvalues --  -14.26148 -14.23449 -10.21600 -10.18578 -10.18271
  Beta  occ. eigenvalues --  -10.13252 -10.13121 -10.12056 -10.11377 -10.10986
  Beta  occ. eigenvalues --  -10.07747 -10.07514  -1.01620  -0.95389  -0.94772
  Beta  occ. eigenvalues --   -0.92979  -0.90334  -0.85589  -0.80830  -0.72197
  Beta  occ. eigenvalues --   -0.68388  -0.65842  -0.62494  -0.60806  -0.54107
  Beta  occ. eigenvalues --   -0.50908  -0.50228  -0.49652  -0.46635  -0.45612
  Beta  occ. eigenvalues --   -0.45149  -0.42039  -0.39717  -0.39454  -0.38734
  Beta  occ. eigenvalues --   -0.37796  -0.36761  -0.35966  -0.34570  -0.34199
  Beta  occ. eigenvalues --   -0.34064  -0.33361  -0.32025  -0.31669  -0.30693
  Beta  occ. eigenvalues --   -0.30274  -0.29769  -0.29441  -0.28435  -0.27366
  Beta  occ. eigenvalues --   -0.23501  -0.20305  -0.18478  -0.18173  -0.17894
  Beta  occ. eigenvalues --   -0.16008  -0.15374  -0.13336
  Beta virt. eigenvalues --    0.06257   0.06427   0.07109   0.07594   0.08482
  Beta virt. eigenvalues --    0.08625   0.09288   0.09616   0.09892   0.10452
  Beta virt. eigenvalues --    0.10761   0.11760   0.11993   0.12750   0.12907

 Mulliken charges and spin densities:
               1          2
     1  C    0.162603  -0.537731
     2  N    0.100398   0.090486
     3  C    0.030892   0.039390
     4  C   -0.288079  -0.187062
     5  C    0.374885   0.249230
     6  C    0.052125   0.307108
     7  C   -0.848704  -0.553701
     8  O   -0.257405   0.040124
     9  N    0.051570   0.109459
    10  C    0.572336  -0.969062
    11  C    0.156715  -0.167504
    12  O   -0.348302   0.045271
    13  N   -0.506088   0.071808
    14  C    0.713549  -1.127376
    15  C   -0.220864   0.319523
    16  O   -0.291959   0.044953
    17  O   -0.278569   0.030569
    18  H    0.017097   0.250214
    19  H   -0.284644   0.472626
    20  H    0.152034  -0.003236
    21  H   -0.097787   0.258644
    22  H    0.097878   0.045282
    23  H    0.150858   0.034049
    24  H    0.015543   0.201754
    25  H    0.280711  -0.001716
    26  H    0.314224  -0.011440
    27  H   -0.426220   0.760234
    28  H    0.125421   0.126242
    29  H   -0.111517   0.302047
    30  H   -0.408699   0.759816
 Sum of Mulliken charges =  -1.00000   1.00000

 Dipole moment (field-independent basis, Debye):
    X=             -5.3654    Y=             -1.7981    Z=             -3.6384  Tot=              6.7274
 Quadrupole moment (field-independent basis, Debye-Ang):
   XX=           -150.3152   YY=           -160.1189   ZZ=           -133.3800
   XY=              4.1635   XZ=             -8.3417   YZ=              1.3122

 Summary of Natural Population Analysis:

                                       Natural Population
                Natural  -----------------------------------------------
    Atom  No    Charge         Core      Valence    Rydberg      Total
 -----------------------------------------------------------------------
      C    1   -0.17893      0.99963     2.17115    0.00815     3.17893
      N    2   -0.19238      0.99963     2.68378    0.00897     3.69238
      C    3   -0.00602      0.99957     1.99456    0.01189     3.00602
      C    4   -0.15121      0.99957     2.14290    0.00873     3.15121
      C    5   -0.11394      0.99952     2.10599    0.00843     3.11394
      C    6    0.02255      0.99947     1.96479    0.01319     2.97745
      C    7    0.34427      0.99958     1.63485    0.02130     2.65573
      O    8   -0.30337      0.99988     3.29857    0.00492     4.30337
      N    9   -0.26427      0.99965     2.75290    0.01171     3.76427
      C   10   -0.12886      0.99955     2.11795    0.01136     3.12886
      C   11    0.32935      0.99969     1.64730    0.02367     2.67065
      O   12   -0.32371      0.99988     3.31784    0.00600     4.32371
      N   13   -0.40673      0.99970     2.89824    0.00878     3.90673
      C   14   -0.13634      0.99955     2.12450    0.01228     3.13634
      C   15    0.41434      0.99972     1.56050    0.02545     2.58566
      O   16   -0.29702      0.99986     3.29112    0.00603     4.29702
      O   17   -0.35630      0.99987     3.34804    0.00838     4.35630
      H   18    0.10331      0.00000     0.39531    0.00138     0.39669
      H   19    0.10167      0.00000     0.39734    0.00099     0.39833
      H   20    0.10946      0.00000     0.38811    0.00243     0.39054
      H   21    0.09970      0.00000     0.39946    0.00085     0.40030
      H   22    0.10333      0.00000     0.39605    0.00062     0.39667
      H   23    0.10896      0.00000     0.39030    0.00074     0.39104
      H   24    0.10854      0.00000     0.39038    0.00109     0.39146
      H   25    0.12037      0.00000     0.37838    0.00125     0.37963
      H   26    0.21008      0.00000     0.28289    0.00703     0.28992
      H   27    0.20052      0.00000     0.29447    0.00501     0.29948
      H   28    0.11552      0.00000     0.38348    0.00099     0.38448
      H   29    0.11578      0.00000     0.38280    0.00142     0.38422
      H   30    0.25132      0.00000     0.23630    0.01238     0.24868
 =======================================================================
   * Total *   -0.00000     16.99433    45.77026    0.23542    63.00000

 Normal termination of Gaussian 16 at Fri Dec 11 13:47:57 2020.
