 Gaussian 16, Revision A.03,

 -----------------------------------------------------------
 # opt freq B3LYP/6-31G(d) empiricaldispersion=gd3bj scf=xqc
 -----------------------------------------------------------

 -------------------------------
 CID_131227417_JID_1701_neutraal
 -------------------------------
 Symbolic Z-matrix:
 Charge =  0 Multiplicity = 1

 SCF Done:  E(RB3LYP) =  -463.239948329     A.U. after   12 cycles
 SCF Done:  E(RB3LYP) =  -463.258204569     A.U. after   10 cycles
 SCF Done:  E(RB3LYP) =  -463.260758542     A.U. after   11 cycles
 SCF Done:  E(RB3LYP) =  -463.261247105     A.U. after   10 cycles
 SCF Done:  E(RB3LYP) =  -463.261385196     A.U. after   10 cycles
 SCF Done:  E(RB3LYP) =  -463.261419706     A.U. after    9 cycles
 SCF Done:  E(RB3LYP) =  -463.261450954     A.U. after   10 cycles
 SCF Done:  E(RB3LYP) =  -463.261456039     A.U. after    9 cycles
 SCF Done:  E(RB3LYP) =  -463.261458143     A.U. after    8 cycles
 SCF Done:  E(RB3LYP) =  -463.261458619     A.U. after    7 cycles
 SCF Done:  E(RB3LYP) =  -463.261459130     A.U. after    8 cycles
 SCF Done:  E(RB3LYP) =  -463.261459226     A.U. after    7 cycles
 SCF Done:  E(RB3LYP) =  -463.261459238     A.U. after    6 cycles
 Optimization completed.
    -- Stationary point found.

 1\1\GINC-NODE104\FOpt\RB3LYP\6-31G(d)\C9H18N2\VSC10255\08-Dec-2020\0\\
 # opt freq B3LYP/6-31G(d) empiricaldispersion=gd3bj scf=xqc\\CID_13122
 7417_JID_1701_neutraal\\0,1\C,0.82518535,-0.1065473088,-0.2066660621\C
 ,1.0550929371,1.355438297,0.1821000964\C,2.1044276248,2.0701360671,-0.
 6793687549\C,1.7671631697,2.119285368,-2.1646821912\C,2.9061632559,2.3
 999945982,-3.1322881727\C,2.2815201402,1.0231056383,-3.0550686438\N,0.
 4332950702,2.6174263455,-2.4393385467\C,0.2628843931,4.0474976573,-2.3
 360119813\C,0.7131041453,5.0370975592,-3.4565617471\N,-0.6205012368,5.

 Normal termination of Gaussian 16 at Tue Dec  8 20:56:17 2020.

 --------------------------------------------------------------------
 #N Geom=AllCheck Guess=TCheck SCRF=Check GenChk RB3LYP/6-31G(d) Freq
 --------------------------------------------------------------------

 Structure from the checkpoint file:  "JID_1701.chk"
 -------------------------------
 CID_131227417_JID_1701_neutraal
 -------------------------------
 Charge =  0 Multiplicity = 1

 SCF Done:  E(RB3LYP) =  -463.261459238     A.U. after    1 cycles

  Exact polarizability: 113.975   2.031 103.238  -3.000   0.819  92.174
 Approx polarizability: 142.334   3.952 142.201  -3.616   0.851 139.502

                      1                      2                      3
                      A                      A                      A
 Frequencies --     30.2734                47.4841                83.0082
 Red. masses --      3.0092                 2.9523                 2.6566
 Frc consts  --      0.0016                 0.0039                 0.0108
 IR Inten    --      0.4944                 0.8865                 7.1027

                      4                      5                      6
                      A                      A                      A
 Frequencies --     95.2056               132.5771               155.1363
 Red. masses --      2.3803                 2.8250                 2.8727
 Frc consts  --      0.0127                 0.0293                 0.0407
 IR Inten    --      2.5882                 0.4512                 2.5425

                      7                      8                      9
                      A                      A                      A
 Frequencies --    211.0309               268.8891               283.2658
 Red. masses --      1.6832                 1.4786                 2.1034
 Frc consts  --      0.0442                 0.0630                 0.0994
 IR Inten    --      0.8301                 0.3132                 0.4827

                     10                     11                     12
                      A                      A                      A
 Frequencies --    313.5436               358.1105               400.8930
 Red. masses --      2.3836                 2.1755                 2.4945
 Frc consts  --      0.1381                 0.1644                 0.2362
 IR Inten    --      1.3864                 0.8391                 1.6293

                     13                     14                     15
                      A                      A                      A
 Frequencies --    436.3561               446.7328               544.0125
 Red. masses --      2.3796                 2.1411                 2.2152
 Frc consts  --      0.2670                 0.2518                 0.3863
 IR Inten    --      4.6883                 2.3883                 7.0929

                     16                     17                     18
                      A                      A                      A
 Frequencies --    665.4335               726.7309               756.9120
 Red. masses --      3.2348                 2.0296                 1.7055
 Frc consts  --      0.8439                 0.6315                 0.5757
 IR Inten    --     27.6013                 4.4674                55.5114

                     19                     20                     21
                      A                      A                      A
 Frequencies --    787.2210               803.8264               821.9373
 Red. masses --      1.0688                 1.6912                 1.5534
 Frc consts  --      0.3902                 0.6438                 0.6183
 IR Inten    --      0.3763                15.8021                89.8424

                     22                     23                     24
                      A                      A                      A
 Frequencies --    862.9086               871.5861               885.2970
 Red. masses --      1.3017                 2.0811                 1.5360
 Frc consts  --      0.5711                 0.9315                 0.7093
 IR Inten    --      1.2225                 8.5449                13.2076

                     25                     26                     27
                      A                      A                      A
 Frequencies --    897.3555               923.5292               948.7579
 Red. masses --      1.4835                 2.0253                 1.5550
 Frc consts  --      0.7038                 1.0177                 0.8247
 IR Inten    --      1.0088                 2.2846                 4.4617

                     28                     29                     30
                      A                      A                      A
 Frequencies --    971.6920               978.2460               997.7692
 Red. masses --      1.8019                 2.5961                 3.1501
 Frc consts  --      1.0024                 1.4637                 1.8477
 IR Inten    --      5.5249                 9.3299                10.3579

                     31                     32                     33
                      A                      A                      A
 Frequencies --   1004.6087              1034.3284              1051.9468
 Red. masses --      2.5050                 2.6582                 1.4645
 Frc consts  --      1.4896                 1.6755                 0.9548
 IR Inten    --      7.5058                 1.4417                 8.9313

                     34                     35                     36
                      A                      A                      A
 Frequencies --   1069.3722              1085.0393              1090.9077
 Red. masses --      1.7385                 1.4385                 1.3012
 Frc consts  --      1.1713                 0.9978                 0.9123
 IR Inten    --      1.4784                 2.5635                 9.5314

                     37                     38                     39
                      A                      A                      A
 Frequencies --   1117.5945              1123.0344              1151.7520
 Red. masses --      1.8461                 1.9864                 2.1824
 Frc consts  --      1.3586                 1.4760                 1.7057
 IR Inten    --      1.6873                 0.6609                10.7496

                     40                     41                     42
                      A                      A                      A
 Frequencies --   1195.8997              1202.0058              1250.4920
 Red. masses --      1.5298                 2.1216                 1.5042
 Frc consts  --      1.2891                 1.8061                 1.3859
 IR Inten    --     26.2878                44.8088                 2.9222

                     43                     44                     45
                      A                      A                      A
 Frequencies --   1257.5630              1268.8560              1298.1233
 Red. masses --      1.4344                 1.3229                 1.2755
 Frc consts  --      1.3365                 1.2549                 1.2664
 IR Inten    --      8.3841                 0.0706                 3.2159

                     46                     47                     48
                      A                      A                      A
 Frequencies --   1313.4173              1322.1862              1341.0312
 Red. masses --      1.5397                 1.3432                 1.5408
 Frc consts  --      1.5650                 1.3835                 1.6326
 IR Inten    --      2.6347                 0.0361                 4.5849

                     49                     50                     51
                      A                      A                      A
 Frequencies --   1349.1972              1387.1146              1406.1940
 Red. masses --      2.1140                 1.3977                 1.4019
 Frc consts  --      2.2673                 1.5845                 1.6332
 IR Inten    --     32.4624                 8.0779                 2.6672

                     52                     53                     54
                      A                      A                      A
 Frequencies --   1407.6149              1414.8360              1441.1819
 Red. masses --      1.1857                 1.5387                 1.2968
 Frc consts  --      1.3842                 1.8147                 1.5870
 IR Inten    --      9.4900                 7.0780                 3.4507

                     55                     56                     57
                      A                      A                      A
 Frequencies --   1489.1316              1510.7552              1515.6520
 Red. masses --      1.0987                 1.0773                 1.1148
 Frc consts  --      1.4354                 1.4486                 1.5088
 IR Inten    --      3.3662                 1.8526                 7.3534

                     58                     59                     60
                      A                      A                      A
 Frequencies --   1522.3464              1525.4277              1530.8482
 Red. masses --      1.0956                 1.1365                 1.1076
 Frc consts  --      1.4960                 1.5581                 1.5294
 IR Inten    --      0.8962                 4.5382                 5.0408

                     61                     62                     63
                      A                      A                      A
 Frequencies --   1534.2643              1540.1401              1547.1833
 Red. masses --      1.2672                 1.1615                 1.1180
 Frc consts  --      1.7576                 1.6233                 1.5767
 IR Inten    --     15.9338                17.2807                 2.0505

                     64                     65                     66
                      A                      A                      A
 Frequencies --   3023.3723              3030.8106              3041.0709
 Red. masses --      1.0632                 1.0601                 1.0646
 Frc consts  --      5.7258                 5.7374                 5.8007
 IR Inten    --     23.1066                75.6892                25.9017

                     67                     68                     69
                      A                      A                      A
 Frequencies --   3042.4655              3044.9258              3058.4687
 Red. masses --      1.0521                 1.0515                 1.1000
 Frc consts  --      5.7380                 5.7440                 6.0624
 IR Inten    --     49.8871                25.0954                29.8110

                     70                     71                     72
                      A                      A                      A
 Frequencies --   3074.9594              3088.4772              3092.7583
 Red. masses --      1.0906                 1.0964                 1.1048
 Frc consts  --      6.0758                 6.1616                 6.2261
 IR Inten    --      4.6827                17.3801                24.2816

                     73                     74                     75
                      A                      A                      A
 Frequencies --   3100.5946              3107.6417              3129.5120
 Red. masses --      1.1010                 1.1002                 1.1009
 Frc consts  --      6.2363                 6.2602                 6.3523
 IR Inten    --     73.5935                57.7112                44.9310

                     76                     77                     78
                      A                      A                      A
 Frequencies --   3136.7333              3144.7226              3214.9992
 Red. masses --      1.0547                 1.0571                 1.1171
 Frc consts  --      6.1142                 6.1590                 6.8028
 IR Inten    --     18.0810                11.8719                 1.9420

                     79                     80                     81
                      A                      A                      A
 Frequencies --   3230.6709              3496.1281              3500.8137
 Red. masses --      1.1153                 1.0756                 1.0740
 Frc consts  --      6.8584                 7.7460                 7.7549
 IR Inten    --     24.6574                 1.5784                 0.1543

 - Thermochemistry -
 -------------------
 Temperature   298.150 Kelvin.  Pressure   1.00000 Atm.
 Atom     1 has atomic number  6 and mass  12.00000

 Molecular mass:   154.14700 amu.
 Principal axes and moments of inertia in atomic units:
                           1         2         3
     Eigenvalues --  1001.813902757.466263287.36607
           X            0.99994  -0.00979  -0.00547
           Y            0.00979   0.99995   0.00112
           Z            0.00546  -0.00117   0.99998
 This molecule is an asymmetric top.
 Rotational symmetry number  1.
 Warning -- assumption of classical behavior for rotation
           may cause significant error
 Rotational temperatures (Kelvin)      0.08646     0.03141     0.02635
 Rotational constants (GHZ):           1.80147     0.65449     0.54899
 Zero-point vibrational energy     697212.9 (Joules/Mol)
                                  166.63788 (Kcal/Mol)
 Warning -- explicit consideration of  15 degrees of freedom as
           vibrations may cause significant error
 Vibrational temperatures:     43.56    68.32   119.43   136.98   190.75
          (Kelvin)            223.21   303.63   386.87   407.56   451.12
                              515.24   576.80   627.82   642.75   782.71
                              957.41  1045.60  1089.03  1132.64  1156.53
                             1182.58  1241.53  1254.02  1273.74  1291.09
                             1328.75  1365.05  1398.05  1407.48  1435.57
                             1445.41  1488.17  1513.52  1538.59  1561.13
                             1569.57  1607.97  1615.80  1657.11  1720.63
                             1729.42  1799.18  1809.35  1825.60  1867.71
                             1889.71  1902.33  1929.44  1941.19  1995.75
                             2023.20  2025.24  2035.63  2073.54  2142.53
                             2173.64  2180.69  2190.32  2194.75  2202.55
                             2207.46  2215.92  2226.05  4349.96  4360.66
                             4375.42  4377.43  4380.97  4400.45  4424.18
                             4443.63  4449.79  4461.06  4471.20  4502.67
                             4513.06  4524.55  4625.67  4648.21  5030.15
                             5036.89

 Zero-point correction=                           0.265554 (Hartree/Particle)
 Thermal correction to Energy=                    0.277615
 Thermal correction to Enthalpy=                  0.278559
 Thermal correction to Gibbs Free Energy=         0.226422
 Sum of electronic and zero-point Energies=           -462.995905
 Sum of electronic and thermal Energies=              -462.983845
 Sum of electronic and thermal Enthalpies=            -462.982900
 Sum of electronic and thermal Free Energies=         -463.035037

                     E (Thermal)             CV                S
                      KCal/Mol        Cal/Mol-Kelvin    Cal/Mol-Kelvin
 Total                  174.206             45.470            109.731
 Electronic               0.000              0.000              0.000
 Translational            0.889              2.981             41.008
 Rotational               0.889              2.981             30.586
 Vibrational            172.428             39.509             38.137
 Vibration     1          0.594              1.984              5.811
 Vibration     2          0.595              1.979              4.920
 Vibration     3          0.600              1.961              3.818
 Vibration     4          0.603              1.953              3.550
 Vibration     5          0.613              1.921              2.908
 Vibration     6          0.620              1.897              2.608
 Vibration     7          0.643              1.824              2.035
 Vibration     8          0.673              1.730              1.603
 Vibration     9          0.682              1.705              1.514
 Vibration    10          0.701              1.648              1.344
 Vibration    11          0.733              1.559              1.130
 Vibration    12          0.767              1.468              0.959
 Vibration    13          0.797              1.391              0.838
 Vibration    14          0.806              1.368              0.806
 Vibration    15          0.899              1.153              0.557

 Optimization completed.
    -- Stationary point found.

 1\1\GINC-NODE104\Freq\RB3LYP\6-31G(d)\C9H18N2\VSC10255\08-Dec-2020\0\\
 #N Geom=AllCheck Guess=TCheck SCRF=Check GenChk RB3LYP/6-31G(d) Freq\\
 CID_131227417_JID_1701_neutraal\\0,1\C,0.82518535,-0.1065473088,-0.206
 6660621\C,1.0550929371,1.355438297,0.1821000964\C,2.1044276248,2.07013
 60671,-0.6793687549\C,1.7671631697,2.119285368,-2.1646821912\C,2.90616
 32559,2.3999945982,-3.1322881727\C,2.2815201402,1.0231056383,-3.055068
 6438\N,0.4332950702,2.6174263455,-2.4393385467\C,0.2628843931,4.047497
 6573,-2.3360119813\C,0.7131041453,5.0370975592,-3.4565617471\N,-0.6205

 Normal termination of Gaussian 16 at Tue Dec  8 21:04:16 2020.

 ----------------------------------------------------------------------
 # B3LYP/6-311++G(d,p) empiricaldispersion=gd3bj scf=xqc pop=npa geom=c
 heck
 ----------------------------------------------------------------------

 ---------------------------------------
 CID_131227417_JID_1701_Energie_neutraal
 ---------------------------------------
 Structure from the checkpoint file:  "JID_1701.chk"
 Charge =  0 Multiplicity = 1

 SCF Done:  E(RB3LYP) =  -463.396621835     A.U. after   13 cycles
 Normal termination of Gaussian 16 at Tue Dec  8 21:08:17 2020.

 ----------------------------------------------------------------------
 # B3LYP/6-311++G(d,p) empiricaldispersion=gd3bj scf=xqc pop=npa geom=c
 heck
 ----------------------------------------------------------------------

 -------------------------------------
 CID_131227417_JID_1701_Energie_kation
 -------------------------------------
 Structure from the checkpoint file:  "JID_1701.chk"
 Charge =  1 Multiplicity = 2

 SCF Done:  E(UB3LYP) =  -463.108209064     A.U. after   19 cycles
 Normal termination of Gaussian 16 at Tue Dec  8 21:15:02 2020.
 Gaussian 16:  ES64L-G16RevA.03 25-Dec-2016

 ------------------------------------
 CID_131227417_JID_1701_Energie_anion
 ------------------------------------
 Structure from the checkpoint file:  "JID_1701.chk"
 Charge = -1 Multiplicity = 2

                         Standard orientation:
 ---------------------------------------------------------------------
 Center     Atomic      Atomic             Coordinates (Angstroms)
 Number     Number       Type             X           Y           Z
 ---------------------------------------------------------------------
      1          6           0        3.153181   -1.253444   -0.595343
      2          6           0        2.201857   -1.405323    0.593486
      3          6           0        1.610643   -0.079406    1.089908
      4          6           0        0.796939    0.673788    0.044487
      5          6           0        0.548773    2.154784    0.284161
      6          6           0        1.493233    1.697843   -0.807244
      7          7           0       -0.211989   -0.142579   -0.602347
      8          6           0       -1.405818   -0.395056    0.169564
      9          6           0       -2.551955    0.653826    0.324013
     10          7           0       -3.571471   -0.377633   -0.039956
     11          6           0       -2.477274   -1.302570   -0.472738
     12          1           0        2.624757   -0.863743   -1.470723
     13          1           0        3.595099   -2.217604   -0.871157
     14          1           0        3.974958   -0.563775   -0.363931
     15          1           0        1.379473   -2.071635    0.310117
     16          1           0        2.728419   -1.885182    1.429250
     17          1           0        0.979584   -0.275363    1.968482
     18          1           0        2.414580    0.581199    1.441044
     19          1           0       -0.408291    2.567049   -0.020913
     20          1           0        0.971777    2.616744    1.172924
     21          1           0        2.560430    1.841549   -0.665998
     22          1           0        1.169994    1.811302   -1.840121
     23          1           0       -0.459190    0.242687   -1.510903
     24          1           0       -1.105530   -0.777961    1.150300
     25          1           0       -2.683435    1.128672    1.302797
     26          1           0       -2.511189    1.441197   -0.440684
     27          1           0       -4.013189   -0.738148    0.803518
     28          1           0       -2.402354   -1.327841   -1.568124
     29          1           0       -2.549145   -2.334321   -0.111519
 ---------------------------------------------------------------------

 SCF Done:  E(UB3LYP) =  -463.380609375     A.U. after   29 cycles

 The electronic state is 2-A.
 Alpha  occ. eigenvalues --  -14.20009 -14.18910 -10.10743 -10.09265 -10.08584
 Alpha  occ. eigenvalues --  -10.08319 -10.07203 -10.06687 -10.06100 -10.05683
 Alpha  occ. eigenvalues --  -10.05272  -0.83688  -0.80607  -0.73008  -0.67650
 Alpha  occ. eigenvalues --   -0.59403  -0.58638  -0.56976  -0.50615  -0.49807
 Alpha  occ. eigenvalues --   -0.47203  -0.45249  -0.40834  -0.39063  -0.38381
 Alpha  occ. eigenvalues --   -0.36384  -0.33919  -0.33591  -0.30595  -0.29693
 Alpha  occ. eigenvalues --   -0.29019  -0.28179  -0.26984  -0.26518  -0.25941
 Alpha  occ. eigenvalues --   -0.25308  -0.24226  -0.22875  -0.22406  -0.19774
 Alpha  occ. eigenvalues --   -0.18200  -0.12917  -0.11406   0.04669
 Alpha virt. eigenvalues --    0.06629   0.07358   0.07662   0.08961   0.09089
 Alpha virt. eigenvalues --    0.09837   0.09951   0.10495   0.11524   0.12071
 Alpha virt. eigenvalues --    0.12448   0.12450   0.13262   0.13542   0.14403

  Beta  occ. eigenvalues --  -14.19999 -14.18886 -10.10742 -10.09250 -10.08563
  Beta  occ. eigenvalues --  -10.08297 -10.07186 -10.06673 -10.06078 -10.05668
  Beta  occ. eigenvalues --  -10.05252  -0.83660  -0.80578  -0.72989  -0.67620
  Beta  occ. eigenvalues --   -0.59357  -0.58584  -0.56915  -0.50565  -0.49759
  Beta  occ. eigenvalues --   -0.47139  -0.45201  -0.40756  -0.39016  -0.38345
  Beta  occ. eigenvalues --   -0.36348  -0.33896  -0.33552  -0.30564  -0.29664
  Beta  occ. eigenvalues --   -0.28985  -0.28138  -0.26956  -0.26484  -0.25902
  Beta  occ. eigenvalues --   -0.25278  -0.24187  -0.22837  -0.22373  -0.19747
  Beta  occ. eigenvalues --   -0.18175  -0.12891  -0.11383
  Beta virt. eigenvalues --    0.06820   0.07768   0.07858   0.08285   0.09428
  Beta virt. eigenvalues --    0.09619   0.10280   0.10312   0.10874   0.12057
  Beta virt. eigenvalues --    0.12528   0.12683   0.12842   0.13526   0.13873

 Mulliken charges and spin densities:
               1          2
     1  C    0.380629  -1.008867
     2  C   -0.703416   0.542266
     3  C    1.321874  -1.628359
     4  C   -2.948955   2.807693
     5  C    0.920906  -1.240860
     6  C    0.903323  -1.084932
     7  N    0.189542  -0.100244
     8  C   -1.160406   0.933137
     9  C    1.089666  -1.606408
    10  N   -0.387200   0.269329
    11  C    1.305471  -1.630694
    12  H   -0.038779   0.204986
    13  H   -0.250790   0.381198
    14  H   -0.027697   0.147776
    15  H    0.136811  -0.003389
    16  H   -0.182030   0.326029
    17  H   -0.187360   0.363724
    18  H   -0.285950   0.436610
    19  H    0.221075  -0.103837
    20  H   -0.243868   0.408192
    21  H    0.084535   0.066811
    22  H   -0.230991   0.364752
    23  H    0.221225   0.021502
    24  H   -0.060789   0.205944
    25  H   -0.471085   0.636506
    26  H   -0.000580   0.171619
    27  H   -0.162261   0.399129
    28  H    0.024445   0.101105
    29  H   -0.457344   0.619281
 Sum of Mulliken charges =  -1.00000   1.00000

 Dipole moment (field-independent basis, Debye):
    X=              1.7523    Y=              1.3595    Z=             -3.2200  Tot=              3.9098
 Quadrupole moment (field-independent basis, Debye-Ang):
   XX=           -143.1388   YY=           -109.7703   ZZ=           -106.7407
   XY=             -2.6412   XZ=              3.4381   YZ=             -0.6493

 Summary of Natural Population Analysis:

                                       Natural Population
                Natural  -----------------------------------------------
    Atom  No    Charge         Core      Valence    Rydberg      Total
 -----------------------------------------------------------------------
      C    1   -0.28421      0.99967     2.28032    0.00422     3.28421
      C    2   -0.18947      0.99964     2.18172    0.00812     3.18947
      C    3   -0.18892      0.99958     2.17887    0.01047     3.18892
      C    4    0.05468      0.99953     1.93017    0.01562     2.94532
      C    5   -0.20645      0.99958     2.19744    0.00942     3.20645
      C    6   -0.19767      0.99958     2.18908    0.00901     3.19767
      N    7   -0.33570      0.99969     2.82413    0.01187     3.83570
      C    8   -0.02337      0.99958     2.00977    0.01403     3.02337
      C    9   -0.09127      0.99964     2.08071    0.01092     3.09127
      N   10   -0.34483      0.99978     2.83124    0.01381     3.84483
      C   11   -0.08321      0.99965     2.07173    0.01183     3.08321
      H   12    0.09879      0.00000     0.39986    0.00135     0.40121
      H   13    0.09558      0.00000     0.40345    0.00096     0.40442
      H   14    0.09282      0.00000     0.40590    0.00128     0.40718
      H   15    0.10029      0.00000     0.39803    0.00168     0.39971
      H   16    0.09316      0.00000     0.40573    0.00111     0.40684
      H   17    0.10152      0.00000     0.39670    0.00179     0.39848
      H   18    0.09784      0.00000     0.40054    0.00162     0.40216
      H   19    0.10263      0.00000     0.39609    0.00128     0.39737
      H   20    0.10297      0.00000     0.39587    0.00116     0.39703
      H   21    0.10464      0.00000     0.39423    0.00113     0.39536
      H   22    0.09935      0.00000     0.39960    0.00105     0.40065
      H   23    0.17299      0.00000     0.32364    0.00338     0.32701
      H   24    0.09792      0.00000     0.39965    0.00242     0.40208
      H   25    0.09446      0.00000     0.40355    0.00199     0.40554
      H   26    0.08339      0.00000     0.41488    0.00172     0.41661
      H   27    0.17349      0.00000     0.32197    0.00454     0.32651
      H   28    0.08496      0.00000     0.41346    0.00158     0.41504
      H   29    0.09360      0.00000     0.40453    0.00187     0.40640
 =======================================================================
   * Total *   -0.00000     10.99590    31.85288    0.15122    43.00000

 Normal termination of Gaussian 16 at Tue Dec  8 21:25:06 2020.
