 Gaussian 16, Revision A.03,

 -----------------------------------------------------------
 # opt freq B3LYP/6-31G(d) empiricaldispersion=gd3bj scf=xqc
 -----------------------------------------------------------

 -------------------------------
 CID_136298154_JID_2782_neutraal
 -------------------------------
 Symbolic Z-matrix:
 Charge =  0 Multiplicity = 1

 SCF Done:  E(RB3LYP) =  -568.188465120     A.U. after   14 cycles
 SCF Done:  E(RB3LYP) =  -568.208716441     A.U. after   12 cycles
 SCF Done:  E(RB3LYP) =  -568.211836807     A.U. after   12 cycles
 SCF Done:  E(RB3LYP) =  -568.212479750     A.U. after   12 cycles
 SCF Done:  E(RB3LYP) =  -568.212788326     A.U. after   12 cycles
 SCF Done:  E(RB3LYP) =  -568.212883370     A.U. after   11 cycles
 SCF Done:  E(RB3LYP) =  -568.212933254     A.U. after   11 cycles
 SCF Done:  E(RB3LYP) =  -568.212944411     A.U. after    9 cycles
 SCF Done:  E(RB3LYP) =  -568.212946561     A.U. after    8 cycles
 SCF Done:  E(RB3LYP) =  -568.212947032     A.U. after    7 cycles
 Optimization completed.
    -- Stationary point found.
 Normal termination of Gaussian 16 at Wed Dec  9 18:00:02 2020.

 --------------------------------------------------------------------
 #N Geom=AllCheck Guess=TCheck SCRF=Check GenChk RB3LYP/6-31G(d) Freq
 --------------------------------------------------------------------

 Structure from the checkpoint file:  "JID_2782.chk"
 -------------------------------
 CID_136298154_JID_2782_neutraal
 -------------------------------
 Charge =  0 Multiplicity = 1

 SCF Done:  E(RB3LYP) =  -568.212947032     A.U. after    1 cycles

  Exact polarizability: 116.926  -8.550  78.783   3.743   3.128  87.425
 Approx polarizability: 158.563 -18.147 116.405   4.902  12.081 144.984

                      1                      2                      3
                      A                      A                      A
 Frequencies --     46.0961                78.1384                92.0081
 Red. masses --      4.9463                 5.1413                 3.9452
 Frc consts  --      0.0062                 0.0185                 0.0197
 IR Inten    --      0.2789                 0.5545                 0.5315

                      4                      5                      6
                      A                      A                      A
 Frequencies --    161.7360               200.8923               262.3229
 Red. masses --      2.7725                 3.6566                 3.0744
 Frc consts  --      0.0427                 0.0869                 0.1246
 IR Inten    --      0.8269                 6.3371                 0.0147

                      7                      8                      9
                      A                      A                      A
 Frequencies --    277.5630               301.7103               332.1893
 Red. masses --      1.5910                 2.2650                 2.0375
 Frc consts  --      0.0722                 0.1215                 0.1325
 IR Inten    --     33.0615                 1.1527                 9.2616

                     10                     11                     12
                      A                      A                      A
 Frequencies --    346.5561               405.2343               415.5401
 Red. masses --      2.8750                 2.3638                 1.5728
 Frc consts  --      0.2034                 0.2287                 0.1600
 IR Inten    --     23.4588                 5.9672                 4.6452

                     13                     14                     15
                      A                      A                      A
 Frequencies --    478.2827               508.0854               510.0747
 Red. masses --      1.7297                 2.7823                 1.6058
 Frc consts  --      0.2331                 0.4232                 0.2462
 IR Inten    --     20.6479                62.2362               178.8797

                     16                     17                     18
                      A                      A                      A
 Frequencies --    600.8571               680.1681               727.2153
 Red. masses --      3.8204                 2.9326                 3.1778
 Frc consts  --      0.8126                 0.7994                 0.9902
 IR Inten    --      1.3151                 6.0763                13.5414

                     19                     20                     21
                      A                      A                      A
 Frequencies --    734.7506               759.2744               790.8840
 Red. masses --      3.2051                 4.3710                 1.2159
 Frc consts  --      1.0195                 1.4846                 0.4481
 IR Inten    --      4.4310                 1.3139                 8.3641

                     22                     23                     24
                      A                      A                      A
 Frequencies --    814.8902               864.1176               875.2479
 Red. masses --      5.2168                 1.8393                 2.0226
 Frc consts  --      2.0411                 0.8092                 0.9129
 IR Inten    --      8.0353                61.0210                29.6617

                     25                     26                     27
                      A                      A                      A
 Frequencies --    907.1076               936.6963               950.8446
 Red. masses --      1.7407                 1.9984                 2.4687
 Frc consts  --      0.8439                 1.0331                 1.3150
 IR Inten    --     53.0513                 4.5840                 1.8942

                     28                     29                     30
                      A                      A                      A
 Frequencies --    987.1569              1009.6725              1027.3458
 Red. masses --      2.6240                 3.1205                 6.6987
 Frc consts  --      1.5065                 1.8743                 4.1655
 IR Inten    --      1.2523                16.3300                23.0051

                     31                     32                     33
                      A                      A                      A
 Frequencies --   1036.7656              1062.6949              1100.1825
 Red. masses --      1.9738                 1.1959                 2.0285
 Frc consts  --      1.2500                 0.7958                 1.4466
 IR Inten    --     11.3448                 6.8551                 4.7932

                     34                     35                     36
                      A                      A                      A
 Frequencies --   1125.7302              1204.5911              1210.9036
 Red. masses --      3.0798                 1.7306                 1.6191
 Frc consts  --      2.2996                 1.4795                 1.3987
 IR Inten    --     17.5097                 7.2715                 6.8192

                     37                     38                     39
                      A                      A                      A
 Frequencies --   1223.4491              1254.2128              1263.0558
 Red. masses --      1.4414                 1.7601                 1.3411
 Frc consts  --      1.2712                 1.6313                 1.2605
 IR Inten    --      4.9044                 0.5636                 1.3153

                     40                     41                     42
                      A                      A                      A
 Frequencies --   1268.3962              1286.6069              1297.9541
 Red. masses --      1.7461                 2.0662                 1.5616
 Frc consts  --      1.6551                 2.0152                 1.5500
 IR Inten    --     24.8842                19.1081                 1.1353

                     43                     44                     45
                      A                      A                      A
 Frequencies --   1304.3077              1368.6260              1384.6993
 Red. masses --      1.6105                 1.9597                 1.6602
 Frc consts  --      1.6143                 2.1628                 1.8755
 IR Inten    --     14.7280                19.8084                 2.7493

                     46                     47                     48
                      A                      A                      A
 Frequencies --   1400.9377              1489.2991              1501.6864
 Red. masses --      1.6790                 2.1833                 1.0908
 Frc consts  --      1.9415                 2.8532                 1.4493
 IR Inten    --     10.4196                49.3485                 4.0458

                     49                     50                     51
                      A                      A                      A
 Frequencies --   1505.8977              1513.4681              1538.5001
 Red. masses --      1.4140                 1.0861                 1.1313
 Frc consts  --      1.8892                 1.4658                 1.5777
 IR Inten    --     11.4551                 1.5479                 4.7370

                     52                     53                     54
                      A                      A                      A
 Frequencies --   1649.4584              1695.2333              1865.7181
 Red. masses --      7.2800                 1.0964                 9.7598
 Frc consts  --     11.6699                 1.8563                20.0163
 IR Inten    --     21.8450                33.3765               698.7599

                     55                     56                     57
                      A                      A                      A
 Frequencies --   3033.6604              3057.1055              3073.8773
 Red. masses --      1.0692                 1.0580                 1.0630
 Frc consts  --      5.7975                 5.8258                 5.9177
 IR Inten    --     29.3580                51.1807                23.1583

                     58                     59                     60
                      A                      A                      A
 Frequencies --   3090.5611              3101.6648              3127.3611
 Red. masses --      1.0603                 1.1078                 1.0942
 Frc consts  --      5.9672                 6.2793                 6.3051
 IR Inten    --     32.5869                29.1684                 2.6173

                     61                     62                     63
                      A                      A                      A
 Frequencies --   3132.1902              3144.5800              3451.6948
 Red. masses --      1.1047                 1.1070                 1.0499
 Frc consts  --      6.3853                 6.4495                 7.3702
 IR Inten    --      7.9098                50.1553                 2.6548

                     64                     65                     66
                      A                      A                      A
 Frequencies --   3540.1854              3682.3561              3693.1369
 Red. masses --      1.0916                 1.0809                 1.0815
 Frc consts  --      8.0608                 8.6353                 8.6914
 IR Inten    --      0.8377                54.1218                82.0011

 - Thermochemistry -
 -------------------
 Temperature   298.150 Kelvin.  Pressure   1.00000 Atm.
 Atom     1 has atomic number  6 and mass  12.00000

 Molecular mass:   168.10111 amu.
 Principal axes and moments of inertia in atomic units:
                           1         2         3
     Eigenvalues --   897.031263101.771253223.42744
           X            0.99993   0.00899   0.00714
           Y           -0.00828   0.99549  -0.09456
           Z           -0.00796   0.09449   0.99549
 This molecule is an asymmetric top.
 Rotational symmetry number  1.
 Warning -- assumption of classical behavior for rotation
           may cause significant error
 Rotational temperatures (Kelvin)      0.09656     0.02792     0.02687
 Rotational constants (GHZ):           2.01190     0.58184     0.55988
 Zero-point vibrational energy     530923.1 (Joules/Mol)
                                  126.89366 (Kcal/Mol)
 Warning -- explicit consideration of  16 degrees of freedom as
           vibrations may cause significant error
 Vibrational temperatures:     66.32   112.42   132.38   232.70   289.04
          (Kelvin)            377.42   399.35   434.09   477.95   498.62
                              583.04   597.87   688.14   731.02   733.88
                              864.50   978.61  1046.30  1057.14  1092.43
                             1137.91  1172.45  1243.27  1259.29  1305.13
                             1347.70  1368.05  1420.30  1452.69  1478.12
                             1491.67  1528.98  1582.92  1619.67  1733.14
                             1742.22  1760.27  1804.53  1817.26  1824.94
                             1851.14  1867.47  1876.61  1969.15  1992.27
                             2015.64  2142.77  2160.59  2166.65  2177.54
                             2213.56  2373.20  2439.06  2684.35  4364.76
                             4398.49  4422.62  4446.63  4462.60  4499.58
                             4506.52  4524.35  4966.22  5093.54  5298.09
                             5313.60

 Zero-point correction=                           0.202218 (Hartree/Particle)
 Thermal correction to Energy=                    0.213344
 Thermal correction to Enthalpy=                  0.214288
 Thermal correction to Gibbs Free Energy=         0.165100
 Sum of electronic and zero-point Energies=           -568.010729
 Sum of electronic and thermal Energies=              -567.999603
 Sum of electronic and thermal Enthalpies=            -567.998659
 Sum of electronic and thermal Free Energies=         -568.047847

                     E (Thermal)             CV                S
                      KCal/Mol        Cal/Mol-Kelvin    Cal/Mol-Kelvin
 Total                  133.875             43.115            103.526
 Electronic               0.000              0.000              0.000
 Translational            0.889              2.981             41.266
 Rotational               0.889              2.981             30.573
 Vibrational            132.098             37.154             31.686
 Vibration     1          0.595              1.979              4.978
 Vibration     2          0.599              1.964              3.937
 Vibration     3          0.602              1.955              3.617
 Vibration     4          0.622              1.889              2.529
 Vibration     5          0.638              1.839              2.125
 Vibration     6          0.670              1.742              1.646
 Vibration     7          0.679              1.715              1.549
 Vibration     8          0.694              1.670              1.407
 Vibration     9          0.714              1.611              1.249
 Vibration    10          0.725              1.582              1.182
 Vibration    11          0.770              1.459              0.944
 Vibration    12          0.779              1.436              0.907
 Vibration    13          0.835              1.298              0.715
 Vibration    14          0.863              1.232              0.638
 Vibration    15          0.865              1.228              0.633
 Vibration    16          0.959              1.030              0.448

                           ! Non-Optimized Parameters !
 Normal termination of Gaussian 16 at Wed Dec  9 18:06:09 2020.

 ----------------------------------------------------------------------
 # B3LYP/6-311++G(d,p) empiricaldispersion=gd3bj scf=xqc pop=npa geom=c
 heck
 ----------------------------------------------------------------------

 ---------------------------------------
 CID_136298154_JID_2782_Energie_neutraal
 ---------------------------------------
 Structure from the checkpoint file:  "JID_2782.chk"
 Charge =  0 Multiplicity = 1

 SCF Done:  E(RB3LYP) =  -568.386141627     A.U. after   14 cycles
 Normal termination of Gaussian 16 at Wed Dec  9 18:08:48 2020.

 ----------------------------------------------------------------------
 # B3LYP/6-311++G(d,p) empiricaldispersion=gd3bj scf=xqc pop=npa geom=c
 heck
 ----------------------------------------------------------------------

 -------------------------------------
 CID_136298154_JID_2782_Energie_kation
 -------------------------------------
 Structure from the checkpoint file:  "JID_2782.chk"
 Charge =  1 Multiplicity = 2

 SCF Done:  E(UB3LYP) =  -568.077723284     A.U. after   23 cycles
 Normal termination of Gaussian 16 at Wed Dec  9 18:14:47 2020.
 Gaussian 16:  ES64L-G16RevA.03 25-Dec-2016

 ----------------------------------------------------------------------
 # B3LYP/6-311++G(d,p) empiricaldispersion=gd3bj scf=xqc pop=npa geom=c
 heck
 ----------------------------------------------------------------------

 ------------------------------------
 CID_136298154_JID_2782_Energie_anion
 ------------------------------------
 Structure from the checkpoint file:  "JID_2782.chk"
 Charge = -1 Multiplicity = 2

                         Standard orientation:
 ---------------------------------------------------------------------
 Center     Atomic      Atomic             Coordinates (Angstroms)
 Number     Number       Type             X           Y           Z
 ---------------------------------------------------------------------
      1          6           0        1.216693    1.696747   -0.665138
      2          6           0        1.639895    1.229882    0.750822
      3          6           0        1.939543   -0.194787    0.166816
      4          6           0        1.880499    0.426056   -1.257580
      5          6           0        0.827824   -1.237109    0.423754
      6          6           0       -0.557126   -0.806337    0.079488
      7          7           0       -1.131172   -1.022152   -1.070591
      8          7           0       -2.362771   -0.406606   -0.962534
      9          6           0       -2.599040    0.181811    0.263982
     10          8           0       -3.578260    0.776139    0.677939
     11          7           0       -1.388058   -0.090074    0.918314
     12          7           0        3.200114   -0.854309    0.479546
     13          1           0        0.132174    1.700570   -0.799780
     14          1           0        1.610312    2.660036   -1.000238
     15          1           0        0.904102    1.315689    1.558535
     16          1           0        2.566925    1.708695    1.084954
     17          1           0        2.888457    0.617835   -1.640746
     18          1           0        1.316150   -0.132238   -2.008746
     19          1           0        1.064195   -2.121733   -0.173086
     20          1           0        0.857923   -1.534891    1.481627
     21          1           0       -3.030199   -0.474508   -1.713935
     22          1           0       -1.200798    0.200871    1.864900
     23          1           0        3.970727   -0.204822    0.329957
     24          1           0        3.229593   -1.110213    1.467045
 ---------------------------------------------------------------------

 SCF Done:  E(UB3LYP) =  -568.377330856     A.U. after   30 cycles

 The electronic state is 2-A.
 Alpha  occ. eigenvalues --  -18.99613 -14.28318 -14.26710 -14.24644 -14.18776
 Alpha  occ. eigenvalues --  -10.20859 -10.15384 -10.10925 -10.08329 -10.06360
 Alpha  occ. eigenvalues --  -10.06032 -10.05798  -0.99334  -0.92657  -0.82870
 Alpha  occ. eigenvalues --   -0.79947  -0.74235  -0.71237  -0.64439  -0.57042
 Alpha  occ. eigenvalues --   -0.55895  -0.53712  -0.50625  -0.46241  -0.42986
 Alpha  occ. eigenvalues --   -0.41425  -0.40022  -0.38973  -0.37744  -0.35607
 Alpha  occ. eigenvalues --   -0.34663  -0.32350  -0.31807  -0.29071  -0.28635
 Alpha  occ. eigenvalues --   -0.26410  -0.25133  -0.23892  -0.23269  -0.22807
 Alpha  occ. eigenvalues --   -0.21202  -0.20355  -0.17823  -0.13908  -0.13346
 Alpha  occ. eigenvalues --    0.04404
 Alpha virt. eigenvalues --    0.06846   0.07308   0.08407   0.09458   0.10192
 Alpha virt. eigenvalues --    0.10717   0.11116   0.11283   0.11713   0.13187
 Alpha virt. eigenvalues --    0.13580   0.13926   0.14346   0.15385   0.15975

  Beta  occ. eigenvalues --  -18.99609 -14.28303 -14.26659 -14.24633 -14.18725
  Beta  occ. eigenvalues --  -10.20858 -10.15381 -10.10927 -10.08293 -10.06349
  Beta  occ. eigenvalues --  -10.06013 -10.05756  -0.99315  -0.92650  -0.82807
  Beta  occ. eigenvalues --   -0.79890  -0.74195  -0.71178  -0.64381  -0.56975
  Beta  occ. eigenvalues --   -0.55822  -0.53659  -0.50573  -0.46187  -0.42904
  Beta  occ. eigenvalues --   -0.41364  -0.39973  -0.38908  -0.37694  -0.35565
  Beta  occ. eigenvalues --   -0.34646  -0.32320  -0.31741  -0.29030  -0.28594
  Beta  occ. eigenvalues --   -0.26391  -0.25098  -0.23873  -0.23229  -0.22764
  Beta  occ. eigenvalues --   -0.21164  -0.20301  -0.17804  -0.13860  -0.13314
  Beta virt. eigenvalues --    0.06873   0.07707   0.08505   0.09260   0.10024
  Beta virt. eigenvalues --    0.10498   0.11262   0.11506   0.11550   0.12110
  Beta virt. eigenvalues --    0.13543   0.13965   0.14072   0.14462   0.15497

 Mulliken charges and spin densities:
               1          2
     1  C   -0.764958   0.694244
     2  C    1.113181  -1.551427
     3  C   -0.926804   1.103389
     4  C    0.743260  -1.198582
     5  C    0.318397  -1.029123
     6  C    1.202573  -1.371146
     7  N   -0.039617   0.037705
     8  N   -0.263347   0.064257
     9  C    0.465917  -0.147730
    10  O   -0.445786   0.019964
    11  N   -0.276813   0.066371
    12  N   -0.246540  -0.024817
    13  H    0.118289   0.017236
    14  H   -0.189052   0.376306
    15  H   -0.345419   0.450339
    16  H   -0.453118   0.615947
    17  H   -0.167524   0.296176
    18  H    0.070925   0.100206
    19  H    0.135155   0.068745
    20  H   -0.653065   0.846689
    21  H    0.175593   0.156857
    22  H   -0.183002   0.538143
    23  H   -0.169702   0.412239
    24  H   -0.218541   0.458011
 Sum of Mulliken charges =  -1.00000   1.00000

 Dipole moment (field-independent basis, Debye):
    X=             -3.9290    Y=             -0.5063    Z=             -5.4208  Tot=              6.7141
 Quadrupole moment (field-independent basis, Debye-Ang):
   XX=           -140.1549   YY=           -104.0545   ZZ=           -110.5803
   XY=              3.7818   XZ=             -0.2753   YZ=             -0.3550

 Summary of Natural Population Analysis:

                                       Natural Population
                Natural  -----------------------------------------------
    Atom  No    Charge         Core      Valence    Rydberg      Total
 -----------------------------------------------------------------------
      C    1   -0.19492      0.99964     2.18727    0.00801     3.19492
      C    2   -0.19553      0.99959     2.18612    0.00982     3.19553
      C    3    0.06119      0.99956     1.92216    0.01710     2.93881
      C    4   -0.19043      0.99959     2.18202    0.00882     3.19043
      C    5   -0.21584      0.99953     2.20407    0.01224     3.21584
      C    6    0.20263      0.99963     1.77906    0.01868     2.79737
      N    7   -0.16495      0.99967     2.65330    0.01198     3.66495
      N    8   -0.22268      0.99968     2.71288    0.01012     3.72268
      C    9    0.38053      0.99971     1.59691    0.02285     2.61947
      O   10   -0.33283      0.99987     3.32738    0.00558     4.33283
      N   11   -0.30771      0.99963     2.79931    0.00876     3.80771
      N   12   -0.42198      0.99973     2.91173    0.01052     3.92198
      H   13    0.09623      0.00000     0.40208    0.00169     0.40377
      H   14    0.09579      0.00000     0.40321    0.00100     0.40421
      H   15    0.09787      0.00000     0.39986    0.00227     0.40213
      H   16    0.10279      0.00000     0.39416    0.00305     0.39721
      H   17    0.09940      0.00000     0.39935    0.00125     0.40060
      H   18    0.10336      0.00000     0.39539    0.00125     0.39664
      H   19    0.11924      0.00000     0.37912    0.00165     0.38076
      H   20    0.11380      0.00000     0.38306    0.00314     0.38620
      H   21    0.20063      0.00000     0.29761    0.00177     0.29937
      H   22    0.21685      0.00000     0.27810    0.00506     0.28315
      H   23    0.17768      0.00000     0.31905    0.00327     0.32232
      H   24    0.17887      0.00000     0.31706    0.00407     0.32113
 =======================================================================
   * Total *    0.00000     11.99584    32.83023    0.17393    45.00000

 Normal termination of Gaussian 16 at Wed Dec  9 18:23:09 2020.
