 Gaussian 16, Revision A.03,

 -----------------------------------------------------------
 # opt freq B3LYP/6-31G(d) empiricaldispersion=gd3bj scf=xqc
 -----------------------------------------------------------

 -----------------------------
 CID_70018256_JID_672_neutraal
 -----------------------------
 Symbolic Z-matrix:
 Charge =  0 Multiplicity = 1

 SCF Done:  E(RB3LYP) =  -449.991726601     A.U. after   14 cycles
 SCF Done:  E(RB3LYP) =  -450.000005110     A.U. after   13 cycles
 SCF Done:  E(RB3LYP) =  -450.000776164     A.U. after   12 cycles
 SCF Done:  E(RB3LYP) =  -450.000935932     A.U. after   11 cycles
 SCF Done:  E(RB3LYP) =  -450.000955725     A.U. after    9 cycles
 SCF Done:  E(RB3LYP) =  -450.000958102     A.U. after    8 cycles
 Optimization completed.
    -- Stationary point found.
 Normal termination of Gaussian 16 at Tue Dec  8 12:16:41 2020.

 --------------------------------------------------------------------
 #N Geom=AllCheck Guess=TCheck SCRF=Check GenChk RB3LYP/6-31G(d) Freq
 --------------------------------------------------------------------

 Structure from the checkpoint file:  "JID_672.chk"
 -----------------------------
 CID_70018256_JID_672_neutraal
 -----------------------------
 Charge =  0 Multiplicity = 1

 SCF Done:  E(RB3LYP) =  -450.000958102     A.U. after    1 cycles

  Exact polarizability: 163.579   4.790  74.020   0.000  -0.000  32.231
 Approx polarizability: 337.025   3.208 123.302   0.000  -0.000  51.908

                      1                      2                      3
                      A                      A                      A
 Frequencies --     96.2392               133.3885               148.0715
 Red. masses --      9.0265                 5.7858                 3.7753
 Frc consts  --      0.0493                 0.0607                 0.0488
 IR Inten    --      0.1466                 0.4782                 0.6624

                      4                      5                      6
                      A                      A                      A
 Frequencies --    255.8008               401.7037               478.2621
 Red. masses --      6.6068                 7.3565                 6.8032
 Frc consts  --      0.2547                 0.6994                 0.9168
 IR Inten    --      0.0000                 0.0000                 0.0000

                      7                      8                      9
                      A                      A                      A
 Frequencies --    549.9970               604.4912               661.2487
 Red. masses --      3.1430                 2.6738                 5.4020
 Frc consts  --      0.5602                 0.5757                 1.3917
 IR Inten    --      0.0000                40.5405                15.3845

                     10                     11                     12
                      A                      A                      A
 Frequencies --    715.9868               889.1587               892.5446
 Red. masses --      2.9302                 8.6925                 7.2244
 Frc consts  --      0.8850                 4.0490                 3.3909
 IR Inten    --      0.0000                17.9642                 0.0000

                     13                     14                     15
                      A                      A                      A
 Frequencies --    911.6154               914.2820               915.2748
 Red. masses --     10.0217                 1.5075                 1.6433
 Frc consts  --      4.9070                 0.7424                 0.8111
 IR Inten    --     55.0125                20.5825                 0.0001

                     16                     17                     18
                      A                      A                      A
 Frequencies --    949.5578               953.2371               956.1292
 Red. masses --      6.5563                 1.5505                 1.4856
 Frc consts  --      3.4830                 0.8301                 0.8002
 IR Inten    --      0.0000                 0.0000                 0.0413

                     19                     20                     21
                      A                      A                      A
 Frequencies --    996.9430              1010.9327              1072.7495
 Red. masses --      2.9306                 3.9434                 4.3015
 Frc consts  --      1.7161                 2.3745                 2.9166
 IR Inten    --    104.9432                 0.0000               129.2423

                     22                     23                     24
                      A                      A                      A
 Frequencies --   1155.8576              1237.4102              1290.1842
 Red. masses --      5.2142                 1.6279                 2.3312
 Frc consts  --      4.1043                 1.4686                 2.2863
 IR Inten    --     93.2408                 0.0000                 0.0000

                     25                     26                     27
                      A                      A                      A
 Frequencies --   1300.6138              1326.5189              1328.7802
 Red. masses --      1.5102                 1.8170                 1.5986
 Frc consts  --      1.5051                 1.8838                 1.6630
 IR Inten    --      5.0938                 0.0000               138.1688

                     28                     29                     30
                      A                      A                      A
 Frequencies --   1504.2564              1509.1941              1610.2306
 Red. masses --      8.5024                 7.7470                 6.2376
 Frc consts  --     11.3354                10.3962                 9.5289
 IR Inten    --     76.0535                 0.0000               211.6950

                     31                     32                     33
                      A                      A                      A
 Frequencies --   1613.3418              1743.5263              3251.7315
 Red. masses --      6.5171                10.7710                 1.0959
 Frc consts  --      9.9943                19.2914                 6.8271
 IR Inten    --      0.0000                 0.0000                15.4545

                     34                     35                     36
                      A                      A                      A
 Frequencies --   3251.9104              3259.9621              3260.4204
 Red. masses --      1.0961                 1.0975                 1.0979
 Frc consts  --      6.8292                 6.8717                 6.8766
 IR Inten    --      0.0001                 1.2304                 0.0000

 - Thermochemistry -
 -------------------
 Temperature   298.150 Kelvin.  Pressure   1.00000 Atm.
 Atom     1 has atomic number  6 and mass  12.00000

 Molecular mass:   132.04360 amu.
 Principal axes and moments of inertia in atomic units:
                           1         2         3
     Eigenvalues --   391.326121988.416372379.74249
           X            0.99997   0.00824  -0.00000
           Y           -0.00824   0.99997  -0.00000
           Z            0.00000   0.00000   1.00000
 This molecule is an asymmetric top.
 Rotational symmetry number  1.
 Rotational temperatures (Kelvin)      0.22133     0.04356     0.03640
 Rotational constants (GHZ):           4.61186     0.90763     0.75838
 Zero-point vibrational energy     258103.6 (Joules/Mol)
                                   61.68824 (Kcal/Mol)
 Warning -- explicit consideration of   8 degrees of freedom as
           vibrations may cause significant error
 Vibrational temperatures:    138.47   191.92   213.04   368.04   577.96
          (Kelvin)            688.11   791.32   869.73   951.39  1030.15
                             1279.30  1284.17  1311.61  1315.45  1316.88
                             1366.20  1371.50  1375.66  1434.38  1454.51
                             1543.45  1663.02  1780.36  1856.29  1871.29
                             1908.56  1911.82  2164.29  2171.39  2316.76
                             2321.24  2508.55  4678.52  4678.77  4690.36
                             4691.02

 Zero-point correction=                           0.098306 (Hartree/Particle)
 Thermal correction to Energy=                    0.105403
 Thermal correction to Enthalpy=                  0.106347
 Thermal correction to Gibbs Free Energy=         0.065877
 Sum of electronic and zero-point Energies=           -449.902652
 Sum of electronic and thermal Energies=              -449.895555
 Sum of electronic and thermal Enthalpies=            -449.894611
 Sum of electronic and thermal Free Energies=         -449.935081

                     E (Thermal)             CV                S
                      KCal/Mol        Cal/Mol-Kelvin    Cal/Mol-Kelvin
 Total                   66.141             26.204             85.176
 Electronic               0.000              0.000              0.000
 Translational            0.889              2.981             40.547
 Rotational               0.889              2.981             29.006
 Vibrational             64.364             20.242             15.624
 Vibration     1          0.603              1.952              3.529
 Vibration     2          0.613              1.920              2.897
 Vibration     3          0.617              1.905              2.697
 Vibration     4          0.666              1.753              1.690
 Vibration     5          0.767              1.466              0.956
 Vibration     6          0.835              1.298              0.715
 Vibration     7          0.905              1.140              0.544
 Vibration     8          0.963              1.022              0.442

 Optimization completed.
    -- Stationary point found.
 Normal termination of Gaussian 16 at Tue Dec  8 12:19:00 2020.

 ----------------------------------------------------------------------
 # B3LYP/6-311++G(d,p) empiricaldispersion=gd3bj scf=xqc pop=npa geom=c
 heck
 ----------------------------------------------------------------------

 -------------------------------------
 CID_70018256_JID_672_Energie_neutraal
 -------------------------------------
 Structure from the checkpoint file:  "JID_672.chk"
 Charge =  0 Multiplicity = 1

 SCF Done:  E(RB3LYP) =  -450.116221459     A.U. after   13 cycles
 Normal termination of Gaussian 16 at Tue Dec  8 12:22:13 2020.

 ----------------------------------------------------------------------
 # B3LYP/6-311++G(d,p) empiricaldispersion=gd3bj scf=xqc pop=npa geom=c
 heck
 ----------------------------------------------------------------------

 -----------------------------------
 CID_70018256_JID_672_Energie_kation
 -----------------------------------
 Structure from the checkpoint file:  "JID_672.chk"
 Charge =  1 Multiplicity = 2

 SCF Done:  E(UB3LYP) =  -449.748128151     A.U. after   22 cycles
 Normal termination of Gaussian 16 at Tue Dec  8 12:26:18 2020.
 Gaussian 16:  ES64L-G16RevA.03 25-Dec-2016

 ----------------------------------------------------------------------
 # B3LYP/6-311++G(d,p) empiricaldispersion=gd3bj scf=xqc pop=npa geom=c
 heck
 ----------------------------------------------------------------------

 ----------------------------------
 CID_70018256_JID_672_Energie_anion
 ----------------------------------
 Structure from the checkpoint file:  "JID_672.chk"
 Charge = -1 Multiplicity = 2

                         Standard orientation:
 ---------------------------------------------------------------------
 Center     Atomic      Atomic             Coordinates (Angstroms)
 Number     Number       Type             X           Y           Z
 ---------------------------------------------------------------------
      1          6           0        1.604452   -1.145317    0.000077
      2          7           0        2.827482   -0.715955   -0.000096
      3          6           0        2.673067    0.707409   -0.000030
      4          7           0        1.458695    1.171697    0.000060
      5          6           0        0.678056    0.007235    0.000002
      6          6           0       -0.678056   -0.007228    0.000001
      7          6           0       -1.604455    1.145317    0.000071
      8          7           0       -2.827485    0.715952   -0.000088
      9          6           0       -2.673064   -0.707413   -0.000037
     10          7           0       -1.458692   -1.171696    0.000060
     11          1           0        1.326709   -2.192344    0.000077
     12          1           0        3.552691    1.341377   -0.000103
     13          1           0       -1.326718    2.192346    0.000072
     14          1           0       -3.552686   -1.341384   -0.000096
 ---------------------------------------------------------------------

 SCF Done:  E(UB3LYP) =  -450.213519261     A.U. after   15 cycles

 The electronic state is 2-A.
 Alpha  occ. eigenvalues --  -14.15625 -14.15625 -14.15520 -14.15519 -10.07449
 Alpha  occ. eigenvalues --  -10.07449 -10.05483 -10.05455 -10.05441 -10.05401
 Alpha  occ. eigenvalues --   -0.84932  -0.84053  -0.71346  -0.70903  -0.62404
 Alpha  occ. eigenvalues --   -0.54285  -0.46694  -0.44538  -0.41466  -0.39752
 Alpha  occ. eigenvalues --   -0.34703  -0.32906  -0.29164  -0.28199  -0.26413
 Alpha  occ. eigenvalues --   -0.26367  -0.24703  -0.16998  -0.15173  -0.14411
 Alpha  occ. eigenvalues --   -0.13927  -0.12530  -0.12446  -0.11872  -0.02910
 Alpha virt. eigenvalues --    0.10343   0.10654   0.12399   0.12413   0.13373
 Alpha virt. eigenvalues --    0.15182   0.15653   0.16445   0.17012   0.17728
 Alpha virt. eigenvalues --    0.18032   0.19047   0.19617   0.20274   0.20829

  Beta  occ. eigenvalues --  -14.15562 -14.15562 -14.15538 -14.15538 -10.07169
  Beta  occ. eigenvalues --  -10.07169 -10.05264 -10.05220 -10.05208 -10.05181
  Beta  occ. eigenvalues --   -0.84515  -0.83652  -0.71103  -0.70710  -0.61821
  Beta  occ. eigenvalues --   -0.53308  -0.46228  -0.44099  -0.41033  -0.39384
  Beta  occ. eigenvalues --   -0.34366  -0.32677  -0.28026  -0.27762  -0.26143
  Beta  occ. eigenvalues --   -0.24932  -0.24507  -0.16821  -0.14287  -0.14002
  Beta  occ. eigenvalues --   -0.13274  -0.12435  -0.12262  -0.09839
  Beta virt. eigenvalues --    0.03353   0.10341   0.10647   0.12396   0.12417
  Beta virt. eigenvalues --    0.14739   0.15347   0.16306   0.16449   0.17053
  Beta virt. eigenvalues --    0.17714   0.18070   0.19436   0.20879   0.21016

 Mulliken charges and spin densities:
               1          2
     1  C   -0.507706   0.165166
     2  N   -0.199599   0.045481
     3  C    0.122774   0.198520
     4  N   -0.181895  -0.028412
     5  C    0.023997   0.146338
     6  C    0.024000   0.146338
     7  C   -0.507704   0.165163
     8  N   -0.199600   0.045484
     9  C    0.122773   0.198516
    10  N   -0.181893  -0.028411
    11  H    0.114483  -0.012044
    12  H    0.127943  -0.015047
    13  H    0.114483  -0.012044
    14  H    0.127943  -0.015047
 Sum of Mulliken charges =  -1.00000   1.00000

 Dipole moment (field-independent basis, Debye):
    X=              0.0000    Y=             -0.0000    Z=              0.0001  Tot=              0.0001
 Quadrupole moment (field-independent basis, Debye-Ang):
   XX=            -93.5705   YY=            -68.3834   ZZ=            -62.4338
   XY=              6.7740   XZ=              0.0000   YZ=             -0.0000

 Summary of Natural Population Analysis:

                                       Natural Population
                Natural  -----------------------------------------------
    Atom  No    Charge         Core      Valence    Rydberg      Total
 -----------------------------------------------------------------------
      C    1    0.08900      0.99962     1.89596    0.01542     2.91100
      N    2   -0.25929      0.99973     2.74646    0.01310     3.75929
      C    3    0.18458      0.99969     1.79543    0.02030     2.81542
      N    4   -0.27872      0.99971     2.76852    0.01050     3.77872
      C    5    0.10235      0.99947     1.88497    0.01321     2.89765
      C    6    0.10235      0.99947     1.88497    0.01321     2.89765
      C    7    0.08900      0.99962     1.89596    0.01542     2.91100
      N    8   -0.25929      0.99973     2.74646    0.01310     3.75929
      C    9    0.18458      0.99969     1.79543    0.02030     2.81542
      N   10   -0.27872      0.99971     2.76852    0.01050     3.77872
      H   11    0.08983      0.00000     0.40887    0.00129     0.41017
      H   12    0.07225      0.00000     0.42660    0.00115     0.42775
      H   13    0.08983      0.00000     0.40887    0.00129     0.41017
      H   14    0.07225      0.00000     0.42660    0.00115     0.42775
 =======================================================================
   * Total *    0.00000      9.99641    23.85363    0.14997    34.00000

 Normal termination of Gaussian 16 at Tue Dec  8 12:28:22 2020.
