 Gaussian 16, Revision A.03,

 -----------------------------------------------------------
 # opt freq B3LYP/6-31G(d) empiricaldispersion=gd3bj scf=xqc
 -----------------------------------------------------------

 -------------------------------
 CID_104676527_JID_5609_neutraal
 -------------------------------
 Symbolic Z-matrix:
 Charge =  0 Multiplicity = 1

 SCF Done:  E(RB3LYP) =  -688.719082519     A.U. after   14 cycles
 SCF Done:  E(RB3LYP) =  -688.737910619     A.U. after   12 cycles
 SCF Done:  E(RB3LYP) =  -688.740060071     A.U. after   12 cycles
 SCF Done:  E(RB3LYP) =  -688.740533211     A.U. after   12 cycles
 SCF Done:  E(RB3LYP) =  -688.740715658     A.U. after   11 cycles
 SCF Done:  E(RB3LYP) =  -688.740771627     A.U. after   11 cycles
 SCF Done:  E(RB3LYP) =  -688.740800488     A.U. after   10 cycles
 SCF Done:  E(RB3LYP) =  -688.740821411     A.U. after   11 cycles
 SCF Done:  E(RB3LYP) =  -688.740831481     A.U. after   11 cycles
 SCF Done:  E(RB3LYP) =  -688.740846315     A.U. after   10 cycles
 SCF Done:  E(RB3LYP) =  -688.740851887     A.U. after    9 cycles
 SCF Done:  E(RB3LYP) =  -688.740852537     A.U. after    9 cycles
 SCF Done:  E(RB3LYP) =  -688.740852665     A.U. after    9 cycles
 SCF Done:  E(RB3LYP) =  -688.740852874     A.U. after    8 cycles
 Optimization completed.
    -- Stationary point found.
 Normal termination of Gaussian 16 at Thu Dec 10 16:10:22 2020.

 --------------------------------------------------------------------
 #N Geom=AllCheck Guess=TCheck SCRF=Check GenChk RB3LYP/6-31G(d) Freq
 --------------------------------------------------------------------

 Structure from the checkpoint file:  "JID_5609.chk"
 -------------------------------
 CID_104676527_JID_5609_neutraal
 -------------------------------
 Charge =  0 Multiplicity = 1

 SCF Done:  E(RB3LYP) =  -688.740852874     A.U. after    1 cycles

  Exact polarizability: 149.812  -3.760 125.891 -16.813 -11.162 103.757
 Approx polarizability: 201.552 -11.689 194.631 -34.372 -24.253 168.320

                      1                      2                      3
                      A                      A                      A
 Frequencies --     16.0258                37.5022                63.8266
 Red. masses --      4.3683                 4.0880                 3.4755
 Frc consts  --      0.0007                 0.0034                 0.0083
 IR Inten    --      0.5783                 0.1474                 0.5320

                      4                      5                      6
                      A                      A                      A
 Frequencies --     72.6276               103.9994               113.7683
 Red. masses --      3.2814                 3.1595                 3.3791
 Frc consts  --      0.0102                 0.0201                 0.0258
 IR Inten    --      1.6131                 1.0043                 1.7791

                      7                      8                      9
                      A                      A                      A
 Frequencies --    175.3617               220.2471               242.5623
 Red. masses --      2.1492                 3.2067                 1.8300
 Frc consts  --      0.0389                 0.0916                 0.0634
 IR Inten    --      2.2034                 4.1709                 1.7000

                     10                     11                     12
                      A                      A                      A
 Frequencies --    251.8366               274.0364               307.0559
 Red. masses --      4.6049                 2.1703                 1.4224
 Frc consts  --      0.1721                 0.0960                 0.0790
 IR Inten    --      4.5367                 5.0767                43.8579

                     13                     14                     15
                      A                      A                      A
 Frequencies --    354.8613               392.7146               426.4541
 Red. masses --      2.1646                 3.1671                 3.0843
 Frc consts  --      0.1606                 0.2878                 0.3305
 IR Inten    --     17.1428                 2.6939                 1.0995

                     16                     17                     18
                      A                      A                      A
 Frequencies --    431.9778               450.9773               482.2556
 Red. masses --      5.7743                 2.7470                 2.9647
 Frc consts  --      0.6349                 0.3292                 0.4062
 IR Inten    --      7.7205                 3.7614                 6.8890

                     19                     20                     21
                      A                      A                      A
 Frequencies --    526.7619               585.5253               630.1149
 Red. masses --      4.7417                 4.1228                 4.5494
 Frc consts  --      0.7752                 0.8328                 1.0642
 IR Inten    --      2.1805                 7.2628                11.4349

                     22                     23                     24
                      A                      A                      A
 Frequencies --    637.0534               688.9680               733.2421
 Red. masses --      4.2653                 3.0847                 2.0329
 Frc consts  --      1.0199                 0.8627                 0.6440
 IR Inten    --      8.0156                 5.3758                24.8132

                     25                     26                     27
                      A                      A                      A
 Frequencies --    788.3558               813.5710               835.4012
 Red. masses --      3.2751                 1.1738                 1.8852
 Frc consts  --      1.1993                 0.4578                 0.7752
 IR Inten    --      1.6865                 2.3986                23.8115

                     28                     29                     30
                      A                      A                      A
 Frequencies --    848.3539               868.7190               882.3583
 Red. masses --      2.1648                 3.0908                 1.7297
 Frc consts  --      0.9180                 1.3743                 0.7934
 IR Inten    --      2.1632                24.5833                64.8894

                     31                     32                     33
                      A                      A                      A
 Frequencies --    906.2384               939.0492               959.6383
 Red. masses --      2.6203                 1.3034                 1.5766
 Frc consts  --      1.2679                 0.6772                 0.8554
 IR Inten    --      4.1683                 0.4341                45.6235

                     34                     35                     36
                      A                      A                      A
 Frequencies --    963.7790               989.4478              1000.8725
 Red. masses --      1.5921                 1.3465                 3.4277
 Frc consts  --      0.8713                 0.7767                 2.0231
 IR Inten    --     25.2690                 0.2702                65.9342

                     37                     38                     39
                      A                      A                      A
 Frequencies --   1022.8012              1038.7822              1041.7138
 Red. masses --      2.7046                 2.7446                 3.6222
 Frc consts  --      1.6670                 1.7449                 2.3159
 IR Inten    --     25.3946                18.2992                12.3790

                     40                     41                     42
                      A                      A                      A
 Frequencies --   1070.0307              1088.6048              1105.8101
 Red. masses --      2.6340                 1.9392                 2.5852
 Frc consts  --      1.7769                 1.3540                 1.8625
 IR Inten    --      4.3187                30.4751                50.6082

                     43                     44                     45
                      A                      A                      A
 Frequencies --   1126.7771              1138.9861              1150.3380
 Red. masses --      1.9184                 1.3764                 2.4198
 Frc consts  --      1.4351                 1.0521                 1.8866
 IR Inten    --     22.0152                18.7871               208.6036

                     46                     47                     48
                      A                      A                      A
 Frequencies --   1164.3499              1207.6836              1220.7245
 Red. masses --      1.5658                 1.6245                 1.7689
 Frc consts  --      1.2507                 1.3960                 1.5530
 IR Inten    --      7.5524                13.1872                 7.1764

                     49                     50                     51
                      A                      A                      A
 Frequencies --   1230.3424              1255.2434              1261.7380
 Red. masses --      1.4362                 2.1776                 1.9227
 Frc consts  --      1.2809                 2.0216                 1.8035
 IR Inten    --      4.2696                45.2138                53.2055

                     52                     53                     54
                      A                      A                      A
 Frequencies --   1273.7833              1294.4459              1302.9203
 Red. masses --      1.5385                 1.9418                 5.2384
 Frc consts  --      1.4708                 1.9170                 5.2395
 IR Inten    --     15.0589                87.5472                17.2553

                     55                     56                     57
                      A                      A                      A
 Frequencies --   1317.3952              1335.3087              1359.8833
 Red. masses --      1.3854                 1.1651                 1.3655
 Frc consts  --      1.4167                 1.2240                 1.4878
 IR Inten    --     10.2721                10.3260                 2.0322

                     58                     59                     60
                      A                      A                      A
 Frequencies --   1381.6148              1404.0080              1425.2134
 Red. masses --      1.2688                 1.2782                 1.2886
 Frc consts  --      1.4270                 1.4845                 1.5421
 IR Inten    --      7.2410                10.4898                 6.2673

                     61                     62                     63
                      A                      A                      A
 Frequencies --   1436.2494              1441.5031              1466.8239
 Red. masses --      1.3766                 1.3058                 2.4234
 Frc consts  --      1.6730                 1.5986                 3.0720
 IR Inten    --      3.2719                19.0366                40.8489

                     64                     65                     66
                      A                      A                      A
 Frequencies --   1496.1753              1518.8859              1523.5096
 Red. masses --      1.1248                 1.0432                 2.3020
 Frc consts  --      1.4836                 1.4180                 3.1480
 IR Inten    --     15.2840                 4.9530                56.0628

                     67                     68                     69
                      A                      A                      A
 Frequencies --   1526.1786              1545.5211              1627.3921
 Red. masses --      1.0514                 1.0855                 5.4615
 Frc consts  --      1.4429                 1.5276                 8.5220
 IR Inten    --      0.1486                 2.2043                 5.8022

                     70                     71                     72
                      A                      A                      A
 Frequencies --   1642.0330              1680.9348              3051.9144
 Red. masses --      5.9714                 1.0953                 1.0391
 Frc consts  --      9.4861                 1.8234                 5.7026
 IR Inten    --     13.1352                38.2059                 7.2925

                     73                     74                     75
                      A                      A                      A
 Frequencies --   3058.1388              3067.8113              3076.5306
 Red. masses --      1.0599                 1.0802                 1.0731
 Frc consts  --      5.8403                 5.9896                 5.9845
 IR Inten    --     43.8499                18.7738                 4.8548

                     76                     77                     78
                      A                      A                      A
 Frequencies --   3081.6437              3100.2262              3119.5420
 Red. masses --      1.0754                 1.1068                 1.1017
 Frc consts  --      6.0170                 6.2674                 6.3167
 IR Inten    --     45.2503                 5.3046                56.2897

                     79                     80                     81
                      A                      A                      A
 Frequencies --   3134.4598              3138.6847              3144.4637
 Red. masses --      1.1043                 1.0956                 1.0965
 Frc consts  --      6.3921                 6.3592                 6.3880
 IR Inten    --     37.7034                 8.2905                44.0548

                     82                     83                     84
                      A                      A                      A
 Frequencies --   3178.7230              3185.2395              3204.8322
 Red. masses --      1.0879                 1.0915                 1.0912
 Frc consts  --      6.4764                 6.5247                 6.6034
 IR Inten    --     22.6570                14.5938                19.8298

                     85                     86                     87
                      A                      A                      A
 Frequencies --   3221.7369              3471.8460              3558.2349
 Red. masses --      1.0958                 1.0488                 1.0929
 Frc consts  --      6.7011                 7.4486                 8.1523
 IR Inten    --      7.4639                 0.6619                 0.2558

 - Thermochemistry -
 -------------------
 Temperature   298.150 Kelvin.  Pressure   1.00000 Atm.
 Atom     1 has atomic number  6 and mass  12.00000

 Molecular mass:   208.12118 amu.
 Principal axes and moments of inertia in atomic units:
                           1         2         3
     Eigenvalues --  1735.632945000.855475463.45472
           X            0.99993  -0.01211  -0.00003
           Y            0.01210   0.99980  -0.01599
           Z            0.00022   0.01599   0.99987
 This molecule is an asymmetric top.
 Rotational symmetry number  1.
 Warning -- assumption of classical behavior for rotation
           may cause significant error
 Rotational temperatures (Kelvin)      0.04990     0.01732     0.01585
 Rotational constants (GHZ):           1.03982     0.36089     0.33033
 Zero-point vibrational energy     693435.0 (Joules/Mol)
                                  165.73494 (Kcal/Mol)
 Warning -- explicit consideration of  20 degrees of freedom as
           vibrations may cause significant error
 Vibrational temperatures:     23.06    53.96    91.83   104.49   149.63
          (Kelvin)            163.69   252.31   316.89   348.99   362.34
                              394.28   441.78   510.57   565.03   613.57
                              621.52   648.86   693.86   757.89   842.44
                              906.59   916.58   991.27  1054.97  1134.27
                             1170.55  1201.96  1220.59  1249.89  1269.52
                             1303.87  1351.08  1380.71  1386.66  1423.59
                             1440.03  1471.58  1494.58  1498.79  1539.54
                             1566.26  1591.01  1621.18  1638.75  1655.08
                             1675.24  1737.59  1756.35  1770.19  1806.02
                             1815.36  1832.69  1862.42  1874.61  1895.44
                             1921.21  1956.57  1987.84  2020.05  2050.56
                             2066.44  2074.00  2110.43  2152.66  2185.34
                             2191.99  2195.83  2223.66  2341.45  2362.52
                             2418.49  4391.02  4399.98  4413.90  4426.44
                             4433.80  4460.53  4488.33  4509.79  4515.87
                             4524.18  4573.47  4582.85  4611.04  4635.36
                             4995.21  5119.51

 Zero-point correction=                           0.264115 (Hartree/Particle)
 Thermal correction to Energy=                    0.278471
 Thermal correction to Enthalpy=                  0.279415
 Thermal correction to Gibbs Free Energy=         0.220942
 Sum of electronic and zero-point Energies=           -688.476737
 Sum of electronic and thermal Energies=              -688.462382
 Sum of electronic and thermal Enthalpies=            -688.461438
 Sum of electronic and thermal Free Energies=         -688.519911

                     E (Thermal)             CV                S
                      KCal/Mol        Cal/Mol-Kelvin    Cal/Mol-Kelvin
 Total                  174.743             54.444            123.068
 Electronic               0.000              0.000              0.000
 Translational            0.889              2.981             41.903
 Rotational               0.889              2.981             32.228
 Vibrational            172.966             48.483             48.937
 Vibration     1          0.593              1.986              7.074
 Vibration     2          0.594              1.982              5.387
 Vibration     3          0.597              1.972              4.335
 Vibration     4          0.599              1.967              4.081
 Vibration     5          0.605              1.946              3.378
 Vibration     6          0.607              1.938              3.204
 Vibration     7          0.627              1.873              2.377
 Vibration     8          0.647              1.810              1.957
 Vibration     9          0.659              1.775              1.784
 Vibration    10          0.664              1.760              1.718
 Vibration    11          0.676              1.721              1.571
 Vibration    12          0.697              1.660              1.378
 Vibration    13          0.731              1.565              1.145
 Vibration    14          0.760              1.486              0.990
 Vibration    15          0.788              1.413              0.870
 Vibration    16          0.793              1.401              0.852
 Vibration    17          0.810              1.359              0.793
 Vibration    18          0.838              1.289              0.704
 Vibration    19          0.882              1.191              0.594
 Vibration    20          0.943              1.063              0.475

                           ! Non-Optimized Parameters !
 Normal termination of Gaussian 16 at Thu Dec 10 16:20:25 2020.

 ----------------------------------------------------------------------
 # B3LYP/6-311++G(d,p) empiricaldispersion=gd3bj scf=xqc pop=npa geom=c
 heck
 ----------------------------------------------------------------------

 ---------------------------------------
 CID_104676527_JID_5609_Energie_neutraal
 ---------------------------------------
 Structure from the checkpoint file:  "JID_5609.chk"
 Charge =  0 Multiplicity = 1

 SCF Done:  E(RB3LYP) =  -688.937466002     A.U. after   15 cycles
 Normal termination of Gaussian 16 at Thu Dec 10 16:27:29 2020.

 ----------------------------------------------------------------------
 # B3LYP/6-311++G(d,p) empiricaldispersion=gd3bj scf=xqc pop=npa geom=c
 heck
 ----------------------------------------------------------------------

 -------------------------------------
 CID_104676527_JID_5609_Energie_kation
 -------------------------------------
 Structure from the checkpoint file:  "JID_5609.chk"
 Charge =  1 Multiplicity = 2

 SCF Done:  E(UB3LYP) =  -688.630657275     A.U. after   29 cycles
 Normal termination of Gaussian 16 at Thu Dec 10 16:46:01 2020.
 Gaussian 16:  ES64L-G16RevA.03 25-Dec-2016

 ----------------------------------------------------------------------
 # B3LYP/6-311++G(d,p) empiricaldispersion=gd3bj scf=xqc pop=npa geom=c
 heck
 ----------------------------------------------------------------------

 ------------------------------------
 CID_104676527_JID_5609_Energie_anion
 ------------------------------------
 Structure from the checkpoint file:  "JID_5609.chk"
 Charge = -1 Multiplicity = 2

                         Standard orientation:
 ---------------------------------------------------------------------
 Center     Atomic      Atomic             Coordinates (Angstroms)
 Number     Number       Type             X           Y           Z
 ---------------------------------------------------------------------
      1          6           0       -3.501068    2.178335    0.053928
      2          6           0       -3.485637    0.716663   -0.379169
      3          8           0       -2.651006   -0.083474    0.468328
      4          6           0       -1.277152   -0.033936    0.137841
      5          6           0       -0.833543   -1.177259   -0.827552
      6          6           0       -0.326025   -1.984915    0.409372
      7          6           0       -0.471568   -0.707738    1.280518
      8          8           0        0.727539   -0.047261    1.707535
      9          6           0        1.691597    0.222214    0.767820
     10          6           0        2.722372   -0.694925    0.528591
     11          7           0        3.714124   -0.479766   -0.340217
     12          6           0        3.715833    0.683781   -1.002703
     13          6           0        2.752454    1.675471   -0.814914
     14          6           0        1.720077    1.443199    0.091470
     15          7           0       -1.874209   -1.675605   -1.701990
     16          1           0       -3.824194    2.263944    1.096277
     17          1           0       -4.190305    2.754325   -0.574473
     18          1           0       -2.509279    2.635937   -0.033664
     19          1           0       -4.487729    0.284893   -0.286259
     20          1           0       -3.171474    0.606130   -1.423536
     21          1           0       -0.969879    0.980001   -0.141795
     22          1           0        0.012939   -0.844017   -1.437971
     23          1           0       -1.041773   -2.751957    0.723276
     24          1           0        0.667754   -2.433726    0.343014
     25          1           0       -1.055702   -0.820935    2.194295
     26          1           0        2.740632   -1.630670    1.083060
     27          1           0        4.531435    0.833062   -1.707251
     28          1           0        2.813259    2.611287   -1.362262
     29          1           0        0.957262    2.188177    0.292733
     30          1           0       -1.545960   -2.490901   -2.216215
     31          1           0       -2.662696   -1.977405   -1.131892
 ---------------------------------------------------------------------

 SCF Done:  E(UB3LYP) =  -688.927611193     A.U. after   33 cycles
 SCF Done:  E(UB3LYP) =  -688.927611194     a.u. after    1 cycles

 The electronic state is 2-A.
 Alpha  occ. eigenvalues --  -19.03821 -19.02712 -14.19302 -14.18644 -10.12610
 Alpha  occ. eigenvalues --  -10.12029 -10.11644 -10.11428 -10.09523 -10.09093
 Alpha  occ. eigenvalues --  -10.08473 -10.06763 -10.06490 -10.06341 -10.06318
 Alpha  occ. eigenvalues --   -0.95541  -0.93784  -0.82579  -0.79116  -0.71790
 Alpha  occ. eigenvalues --   -0.68611  -0.65199  -0.64410  -0.56898  -0.55872
 Alpha  occ. eigenvalues --   -0.52504  -0.51686  -0.49328  -0.45575  -0.42661
 Alpha  occ. eigenvalues --   -0.41519  -0.40310  -0.39137  -0.38307  -0.36405
 Alpha  occ. eigenvalues --   -0.35488  -0.33896  -0.32448  -0.32376  -0.31375
 Alpha  occ. eigenvalues --   -0.30679  -0.29549  -0.28682  -0.28548  -0.27595
 Alpha  occ. eigenvalues --   -0.26304  -0.26029  -0.24852  -0.22844  -0.21233
 Alpha  occ. eigenvalues --   -0.17753  -0.17556  -0.16388  -0.14357  -0.14267
 Alpha  occ. eigenvalues --   -0.13237   0.04555
 Alpha virt. eigenvalues --    0.06330   0.06787   0.07472   0.08438   0.08816
 Alpha virt. eigenvalues --    0.09365   0.09515   0.10020   0.10657   0.11254
 Alpha virt. eigenvalues --    0.11297   0.12010   0.12651   0.13302   0.13692

  Beta  occ. eigenvalues --  -19.03825 -19.02703 -14.19270 -14.18372 -10.12607
  Beta  occ. eigenvalues --  -10.12062 -10.11645 -10.11408 -10.09518 -10.09110
  Beta  occ. eigenvalues --  -10.08380 -10.06707 -10.06312 -10.06297 -10.06279
  Beta  occ. eigenvalues --   -0.95540  -0.93770  -0.82206  -0.79071  -0.71742
  Beta  occ. eigenvalues --   -0.68277  -0.65144  -0.64262  -0.56854  -0.55814
  Beta  occ. eigenvalues --   -0.52206  -0.51548  -0.49239  -0.45517  -0.42619
  Beta  occ. eigenvalues --   -0.41464  -0.40202  -0.39084  -0.38198  -0.36356
  Beta  occ. eigenvalues --   -0.35452  -0.33803  -0.32398  -0.32330  -0.31346
  Beta  occ. eigenvalues --   -0.30638  -0.29417  -0.28596  -0.28064  -0.27540
  Beta  occ. eigenvalues --   -0.26215  -0.25847  -0.24806  -0.22798  -0.21194
  Beta  occ. eigenvalues --   -0.17546  -0.16544  -0.16331  -0.14072  -0.13921
  Beta  occ. eigenvalues --   -0.13160
  Beta virt. eigenvalues --    0.06809   0.07535   0.07784   0.08388   0.08706
  Beta virt. eigenvalues --    0.09194   0.09500   0.09806   0.10222   0.10927
  Beta virt. eigenvalues --    0.11258   0.11574   0.12204   0.12912   0.13409

 Mulliken charges and spin densities:
               1          2
     1  C    0.738336  -1.186267
     2  C   -0.314107   0.180427
     3  O   -0.092071   0.022276
     4  C    0.436225  -0.295184
     5  C   -0.111958  -0.664267
     6  C   -0.062817  -0.086949
     7  C   -0.453927   0.170766
     8  O   -0.080330  -0.003554
     9  C    0.025284  -0.203519
    10  C   -0.239213  -0.089674
    11  N   -0.119576   0.152949
    12  C   -0.078349  -0.298415
    13  C   -0.226539   0.174154
    14  C    0.130311   0.165646
    15  N   -0.247450  -0.016798
    16  H    0.053717   0.087571
    17  H   -0.359622   0.500083
    18  H   -0.307848   0.431423
    19  H   -0.495324   0.655756
    20  H    0.231950  -0.072991
    21  H    0.459006  -0.343187
    22  H    0.008223   0.218008
    23  H   -0.197611   0.339911
    24  H    0.038272   0.117830
    25  H    0.180077   0.069312
    26  H    0.150142  -0.002311
    27  H    0.119253   0.013533
    28  H   -0.141389   0.293887
    29  H    0.045200   0.117251
    30  H   -0.095567   0.337187
    31  H    0.007703   0.215144
 Sum of Mulliken charges =  -1.00000   1.00000

 Dipole moment (field-independent basis, Debye):
    X=              2.1061    Y=             -0.2726    Z=              1.7379  Tot=              2.7442
 Quadrupole moment (field-independent basis, Debye-Ang):
   XX=           -166.0827   YY=           -127.0690   ZZ=           -118.6214
   XY=              5.3909   XZ=             -3.9036   YZ=             -3.8621

 Summary of Natural Population Analysis:

                                       Natural Population
                Natural  -----------------------------------------------
    Atom  No    Charge         Core      Valence    Rydberg      Total
 -----------------------------------------------------------------------
      C    1   -0.29948      0.99966     2.29498    0.00483     3.29948
      C    2   -0.01404      0.99959     2.00210    0.01236     3.01404
      O    3   -0.30757      0.99988     3.29783    0.00986     4.30757
      C    4    0.05379      0.99951     1.93212    0.01458     2.94621
      C    5   -0.02603      0.99959     2.01322    0.01323     3.02603
      C    6   -0.21573      0.99961     2.20739    0.00873     3.21573
      C    7    0.06598      0.99950     1.91863    0.01588     2.93402
      O    8   -0.29050      0.99986     3.28146    0.00918     4.29050
      C    9    0.12138      0.99935     1.86491    0.01435     2.87862
      C   10    0.02054      0.99953     1.96636    0.01356     2.97946
      N   11   -0.20219      0.99971     2.69064    0.01184     3.70219
      C   12    0.00887      0.99960     1.97512    0.01641     2.99113
      C   13   -0.11530      0.99957     2.10667    0.00906     3.11530
      C   14   -0.07288      0.99951     2.06383    0.00954     3.07288
      N   15   -0.42089      0.99976     2.91051    0.01062     3.92089
      H   16    0.09898      0.00000     0.39984    0.00118     0.40102
      H   17    0.10093      0.00000     0.39772    0.00135     0.39907
      H   18    0.09723      0.00000     0.40150    0.00127     0.40277
      H   19    0.08728      0.00000     0.41124    0.00148     0.41272
      H   20    0.08973      0.00000     0.40850    0.00177     0.41027
      H   21    0.08926      0.00000     0.40851    0.00223     0.41074
      H   22    0.09857      0.00000     0.39950    0.00193     0.40143
      H   23    0.10213      0.00000     0.39634    0.00153     0.39787
      H   24    0.10584      0.00000     0.39291    0.00124     0.39416
      H   25    0.09632      0.00000     0.40246    0.00122     0.40368
      H   26    0.08786      0.00000     0.41052    0.00162     0.41214
      H   27    0.08510      0.00000     0.41371    0.00119     0.41490
      H   28    0.09971      0.00000     0.39934    0.00095     0.40029
      H   29    0.10097      0.00000     0.39729    0.00174     0.39903
      H   30    0.17696      0.00000     0.32112    0.00191     0.32304
      H   31    0.17716      0.00000     0.32030    0.00253     0.32284
 =======================================================================
   * Total *    0.00000     14.99423    40.80656    0.19921    56.00000

 Normal termination of Gaussian 16 at Thu Dec 10 17:03:38 2020.
