 Gaussian 16, Revision A.03,

 -----------------------------------------------------------
 # opt freq B3LYP/6-31G(d) empiricaldispersion=gd3bj scf=xqc
 -----------------------------------------------------------

 ------------------------------
 CID_85692164_JID_2423_neutraal
 ------------------------------
 Symbolic Z-matrix:
 Charge =  0 Multiplicity = 1

 SCF Done:  E(RB3LYP) =  -593.128992751     A.U. after   14 cycles
 SCF Done:  E(RB3LYP) =  -593.134399531     A.U. after   12 cycles
 SCF Done:  E(RB3LYP) =  -593.135185320     A.U. after   12 cycles
 SCF Done:  E(RB3LYP) =  -593.134930387     A.U. after   12 cycles
 SCF Done:  E(RB3LYP) =  -593.135451210     A.U. after   12 cycles
 SCF Done:  E(RB3LYP) =  -593.135488252     A.U. after   11 cycles
 SCF Done:  E(RB3LYP) =  -593.135499128     A.U. after   10 cycles
 SCF Done:  E(RB3LYP) =  -593.135507505     A.U. after   10 cycles
 SCF Done:  E(RB3LYP) =  -593.135511292     A.U. after    9 cycles
 SCF Done:  E(RB3LYP) =  -593.135513088     A.U. after    9 cycles
 SCF Done:  E(RB3LYP) =  -593.135513205     A.U. after    7 cycles
 Optimization completed.
    -- Stationary point found.
 Normal termination of Gaussian 16 at Wed Dec  9 17:20:18 2020.

 --------------------------------------------------------------------
 #N Geom=AllCheck Guess=TCheck SCRF=Check GenChk RB3LYP/6-31G(d) Freq
 --------------------------------------------------------------------

 Structure from the checkpoint file:  "JID_2423.chk"
 ------------------------------
 CID_85692164_JID_2423_neutraal
 ------------------------------
 Charge =  0 Multiplicity = 1

 SCF Done:  E(RB3LYP) =  -593.135513205     A.U. after    1 cycles

  Exact polarizability: 106.621   4.948 100.151  -0.387  -0.186  77.428
 Approx polarizability: 126.730   4.107 141.740  -0.151   0.132 130.817

                      1                      2                      3
                      A                      A                      A
 Frequencies --     32.3142                47.2443                78.0424
 Red. masses --      4.7777                 3.9384                 4.6109
 Frc consts  --      0.0029                 0.0052                 0.0165
 IR Inten    --      2.4098                 2.1647                 0.6052

                      4                      5                      6
                      A                      A                      A
 Frequencies --    109.3272               134.0606               149.5261
 Red. masses --      3.3315                 1.1995                 2.4830
 Frc consts  --      0.0235                 0.0127                 0.0327
 IR Inten    --      2.4610                 0.4746                 2.8802

                      7                      8                      9
                      A                      A                      A
 Frequencies --    160.3318               217.0015               244.7749
 Red. masses --      3.4072                 4.2746                 2.4226
 Frc consts  --      0.0516                 0.1186                 0.0855
 IR Inten    --      0.3755                 9.1642                 2.9418

                     10                     11                     12
                      A                      A                      A
 Frequencies --    296.2395               349.4914               383.7021
 Red. masses --      2.5837                 2.1755                 3.3440
 Frc consts  --      0.1336                 0.1566                 0.2901
 IR Inten    --     12.6956                 3.8143                 7.1274

                     13                     14                     15
                      A                      A                      A
 Frequencies --    467.3948               476.4096               492.9125
 Red. masses --      3.7194                 2.4606                 3.3194
 Frc consts  --      0.4787                 0.3290                 0.4752
 IR Inten    --      6.8231                 2.0527                 7.9249

                     16                     17                     18
                      A                      A                      A
 Frequencies --    561.5822               598.3231               618.4903
 Red. masses --      3.8856                 3.2504                 3.2252
 Frc consts  --      0.7220                 0.6856                 0.7269
 IR Inten    --      4.1000                 1.1367                 8.1035

                     19                     20                     21
                      A                      A                      A
 Frequencies --    707.4541               765.5262               834.5474
 Red. masses --      3.2630                 2.0853                 3.0112
 Frc consts  --      0.9622                 0.7200                 1.2356
 IR Inten    --      8.1057                 4.1424                 8.7727

                     22                     23                     24
                      A                      A                      A
 Frequencies --    864.5780               870.4385               946.7218
 Red. masses --      2.5032                 3.0272                 1.5809
 Frc consts  --      1.1024                 1.3513                 0.8348
 IR Inten    --      9.8162                 0.2939                 2.1554

                     25                     26                     27
                      A                      A                      A
 Frequencies --    967.9241               974.5013              1010.9390
 Red. masses --      2.3854                 2.8419                 2.3373
 Frc consts  --      1.3167                 1.5901                 1.4074
 IR Inten    --      5.5802                 2.6554                 4.9371

                     28                     29                     30
                      A                      A                      A
 Frequencies --   1038.6950              1089.6200              1094.9558
 Red. masses --      2.4246                 1.8212                 2.7259
 Frc consts  --      1.5412                 1.2739                 1.9255
 IR Inten    --     18.3464                 0.8703                13.9252

                     31                     32                     33
                      A                      A                      A
 Frequencies --   1145.4392              1160.6824              1183.7658
 Red. masses --      2.6513                 3.3843                 1.8640
 Frc consts  --      2.0496                 2.6863                 1.5389
 IR Inten    --    147.6281                33.5496                 9.2211

                     34                     35                     36
                      A                      A                      A
 Frequencies --   1186.9730              1211.8761              1219.3775
 Red. masses --      1.3203                 1.3963                 1.4312
 Frc consts  --      1.0960                 1.2082                 1.2538
 IR Inten    --      2.0630                16.7532                 7.8437

                     37                     38                     39
                      A                      A                      A
 Frequencies --   1224.8458              1231.8267              1260.9707
 Red. masses --      1.6205                 1.7998                 1.3758
 Frc consts  --      1.4324                 1.6091                 1.2889
 IR Inten    --      4.9249               133.2687                 6.0673

                     40                     41                     42
                      A                      A                      A
 Frequencies --   1283.3255              1307.4099              1322.0494
 Red. masses --      1.7405                 1.6102                 1.4193
 Frc consts  --      1.6889                 1.6217                 1.4616
 IR Inten    --    145.1719                14.6998                31.6069

                     43                     44                     45
                      A                      A                      A
 Frequencies --   1358.8317              1389.2460              1400.2176
 Red. masses --      1.5306                 1.5648                 1.5465
 Frc consts  --      1.6651                 1.7794                 1.7865
 IR Inten    --     16.4628                42.9132                53.1157

                     46                     47                     48
                      A                      A                      A
 Frequencies --   1435.2247              1476.3417              1488.1491
 Red. masses --      1.4298                 1.0968                 1.1144
 Frc consts  --      1.7352                 1.4085                 1.4541
 IR Inten    --      7.4025                 8.2669                 2.0779

                     49                     50                     51
                      A                      A                      A
 Frequencies --   1496.2433              1508.6968              1513.2267
 Red. masses --      1.2118                 1.0787                 1.0507
 Frc consts  --      1.5985                 1.4467                 1.4176
 IR Inten    --     19.5675                 9.6776                13.0100

                     52                     53                     54
                      A                      A                      A
 Frequencies --   1523.6638              1527.2184              1551.8870
 Red. masses --      1.0488                 1.0943                 1.0987
 Frc consts  --      1.4346                 1.5038                 1.5590
 IR Inten    --     10.1514                 4.8845                 4.0000

                     55                     56                     57
                      A                      A                      A
 Frequencies --   1820.6990              1861.5353              2933.2764
 Red. masses --     10.7920                12.6231                 1.0737
 Frc consts  --     21.0779                25.7726                 5.4431
 IR Inten    --    169.5878               231.6856                56.1466

                     58                     59                     60
                      A                      A                      A
 Frequencies --   2945.5483              2967.2278              3062.8270
 Red. masses --      1.0719                 1.0713                 1.0683
 Frc consts  --      5.4796                 5.5573                 5.9048
 IR Inten    --     38.7032                53.6789                 7.2426

                     61                     62                     63
                      A                      A                      A
 Frequencies --   3066.6413              3077.6461              3081.1540
 Red. masses --      1.0668                 1.0296                 1.0884
 Frc consts  --      5.9110                 5.7459                 6.0881
 IR Inten    --      8.1405                28.0872                29.3237

                     64                     65                     66
                      A                      A                      A
 Frequencies --   3095.5419              3101.5936              3137.6383
 Red. masses --      1.0881                 1.0881                 1.0970
 Frc consts  --      6.1432                 6.1672                 6.3630
 IR Inten    --     41.2808                 9.9815                 8.1491

                     67                     68                     69
                      A                      A                      A
 Frequencies --   3137.8116              3152.9337              3186.6394
 Red. masses --      1.0980                 1.1076                 1.1072
 Frc consts  --      6.3694                 6.4871                 6.6244
 IR Inten    --     10.3385                20.7281                16.4678

 - Thermochemistry -
 -------------------
 Temperature   298.150 Kelvin.  Pressure   1.00000 Atm.
 Atom     1 has atomic number  6 and mass  12.00000

 Molecular mass:   171.08954 amu.
 Principal axes and moments of inertia in atomic units:
                           1         2         3
     Eigenvalues --  1177.459043255.696944037.90845
           X            0.99934   0.03623  -0.00372
           Y           -0.03623   0.99934   0.00067
           Z            0.00375  -0.00053   0.99999
 This molecule is an asymmetric top.
 Rotational symmetry number  1.
 Warning -- assumption of classical behavior for rotation
           may cause significant error
 Rotational temperatures (Kelvin)      0.07356     0.02660     0.02145
 Rotational constants (GHZ):           1.53274     0.55433     0.44695
 Zero-point vibrational energy     553986.3 (Joules/Mol)
                                  132.40590 (Kcal/Mol)
 Warning -- explicit consideration of  18 degrees of freedom as
           vibrations may cause significant error
 Vibrational temperatures:     46.49    67.97   112.29   157.30   192.88
          (Kelvin)            215.13   230.68   312.22   352.18   426.22
                              502.84   552.06   672.48   685.45   709.19
                              807.99   860.85   889.87  1017.87  1101.42
                             1200.73  1243.93  1252.37  1362.12  1392.63
                             1402.09  1454.52  1494.45  1567.72  1575.40
                             1648.03  1669.96  1703.17  1707.79  1743.62
                             1754.41  1762.28  1772.32  1814.26  1846.42
                             1881.07  1902.13  1955.06  1998.82  2014.60
                             2064.97  2124.13  2141.11  2152.76  2170.68
                             2177.20  2192.21  2197.33  2232.82  2619.58
                             2678.33  4220.33  4237.99  4269.18  4406.72
                             4412.21  4428.05  4433.09  4453.79  4462.50
                             4514.36  4514.61  4536.37  4584.86

 Zero-point correction=                           0.211002 (Hartree/Particle)
 Thermal correction to Energy=                    0.223228
 Thermal correction to Enthalpy=                  0.224172
 Thermal correction to Gibbs Free Energy=         0.171161
 Sum of electronic and zero-point Energies=           -592.924511
 Sum of electronic and thermal Energies=              -592.912285
 Sum of electronic and thermal Enthalpies=            -592.911341
 Sum of electronic and thermal Free Energies=         -592.964352

                     E (Thermal)             CV                S
                      KCal/Mol        Cal/Mol-Kelvin    Cal/Mol-Kelvin
 Total                  140.078             44.001            111.572
 Electronic               0.000              0.000              0.000
 Translational            0.889              2.981             41.319
 Rotational               0.889              2.981             31.116
 Vibrational            138.300             38.039             39.138
 Vibration     1          0.594              1.983              5.682
 Vibration     2          0.595              1.979              4.930
 Vibration     3          0.599              1.964              3.940
 Vibration     4          0.606              1.942              3.281
 Vibration     5          0.613              1.919              2.887
 Vibration     6          0.618              1.903              2.678
 Vibration     7          0.622              1.891              2.546
 Vibration     8          0.646              1.815              1.984
 Vibration     9          0.660              1.771              1.768
 Vibration    10          0.690              1.681              1.438
 Vibration    11          0.727              1.576              1.168
 Vibration    12          0.753              1.505              1.025
 Vibration    13          0.825              1.322              0.745
 Vibration    14          0.833              1.302              0.720
 Vibration    15          0.849              1.266              0.676
 Vibration    16          0.917              1.114              0.521
 Vibration    17          0.956              1.035              0.453
 Vibration    18          0.978              0.993              0.419

 Optimization completed.
    -- Stationary point found.
 Normal termination of Gaussian 16 at Wed Dec  9 17:25:34 2020.

 ----------------------------------------------------------------------
 # B3LYP/6-311++G(d,p) empiricaldispersion=gd3bj scf=xqc pop=npa geom=c
 heck
 ----------------------------------------------------------------------

 --------------------------------------
 CID_85692164_JID_2423_Energie_neutraal
 --------------------------------------
 Structure from the checkpoint file:  "JID_2423.chk"
 Charge =  0 Multiplicity = 1

 SCF Done:  E(RB3LYP) =  -593.311504077     A.U. after   14 cycles
 Normal termination of Gaussian 16 at Wed Dec  9 17:28:06 2020.

 ----------------------------------------------------------------------
 # B3LYP/6-311++G(d,p) empiricaldispersion=gd3bj scf=xqc pop=npa geom=c
 heck
 ----------------------------------------------------------------------

 ------------------------------------
 CID_85692164_JID_2423_Energie_kation
 ------------------------------------
 Structure from the checkpoint file:  "JID_2423.chk"
 Charge =  1 Multiplicity = 2

 SCF Done:  E(UB3LYP) =  -592.996528786     A.U. after   22 cycles
 Normal termination of Gaussian 16 at Wed Dec  9 17:32:50 2020.
 Gaussian 16:  ES64L-G16RevA.03 25-Dec-2016

 ----------------------------------------------------------------------
 # B3LYP/6-311++G(d,p) empiricaldispersion=gd3bj scf=xqc pop=npa geom=c
 heck
 ----------------------------------------------------------------------

 -----------------------------------
 CID_85692164_JID_2423_Energie_anion
 -----------------------------------
 Structure from the checkpoint file:  "JID_2423.chk"
 Charge = -1 Multiplicity = 2

                         Standard orientation:
 ---------------------------------------------------------------------
 Center     Atomic      Atomic             Coordinates (Angstroms)
 Number     Number       Type             X           Y           Z
 ---------------------------------------------------------------------
      1          6           0        3.363169    1.553856   -0.185148
      2          8           0        2.635525    0.452071   -0.754942
      3          6           0        2.073453   -0.386915    0.141345
      4          8           0        2.159744   -0.239126    1.342180
      5          6           0        1.338844   -1.524501   -0.538508
      6          6           0       -0.026161   -1.805997    0.100818
      7          7           0       -1.039497   -0.849988   -0.313014
      8          6           0       -2.396905   -1.218790    0.109912
      9          6           0       -3.219568    0.030642   -0.209564
     10          6           0       -2.218045    1.164411    0.010730
     11          8           0       -2.464448    2.344924    0.096253
     12          6           0       -0.833492    0.528228    0.127721
     13          1           0        3.749427    2.118480   -1.033593
     14          1           0        4.180329    1.189425    0.442401
     15          1           0        2.699043    2.174504    0.421884
     16          1           0        1.227717   -1.321930   -1.606278
     17          1           0        1.970297   -2.414860   -0.426470
     18          1           0       -0.365164   -2.797715   -0.219417
     19          1           0        0.095843   -1.834901    1.199224
     20          1           0       -2.726384   -2.113689   -0.427495
     21          1           0       -2.446651   -1.439082    1.194309
     22          1           0       -4.113420    0.165487    0.404377
     23          1           0       -3.522421    0.047606   -1.264000
     24          1           0       -0.101751    1.060220   -0.488256
     25          1           0       -0.504723    0.607812    1.182652
 ---------------------------------------------------------------------

 SCF Done:  E(UB3LYP) =  -593.300067292     A.U. after   33 cycles
 SCF Done:  E(UB3LYP) =  -593.300067292     a.u. after    1 cycles

 The electronic state is 2-A.
 Alpha  occ. eigenvalues --  -19.07149 -19.01076 -18.99841 -14.20657 -10.19815
 Alpha  occ. eigenvalues --  -10.13970 -10.12696 -10.09501 -10.09477 -10.08967
 Alpha  occ. eigenvalues --  -10.07877 -10.07120  -1.00982  -0.93371  -0.92126
 Alpha  occ. eigenvalues --   -0.83715  -0.69888  -0.65581  -0.62722  -0.60921
 Alpha  occ. eigenvalues --   -0.53599  -0.48823  -0.46345  -0.44314  -0.41050
 Alpha  occ. eigenvalues --   -0.39291  -0.38629  -0.38550  -0.37232  -0.34793
 Alpha  occ. eigenvalues --   -0.33964  -0.32852  -0.31393  -0.30822  -0.29986
 Alpha  occ. eigenvalues --   -0.29451  -0.27281  -0.26890  -0.26436  -0.25462
 Alpha  occ. eigenvalues --   -0.24695  -0.23767  -0.21271  -0.18218  -0.13928
 Alpha  occ. eigenvalues --   -0.12172   0.04591
 Alpha virt. eigenvalues --    0.06406   0.07183   0.07758   0.09226   0.09526
 Alpha virt. eigenvalues --    0.09775   0.10058   0.10700   0.11693   0.11808
 Alpha virt. eigenvalues --    0.12226   0.13233   0.13564   0.14139   0.15304

  Beta  occ. eigenvalues --  -19.07130 -19.01066 -18.99714 -14.20658 -10.19776
  Beta  occ. eigenvalues --  -10.13790 -10.12661 -10.09477 -10.09450 -10.08974
  Beta  occ. eigenvalues --  -10.07857 -10.07128  -1.00938  -0.93105  -0.92094
  Beta  occ. eigenvalues --   -0.83685  -0.69803  -0.65492  -0.62657  -0.60805
  Beta  occ. eigenvalues --   -0.53504  -0.48737  -0.46283  -0.44094  -0.40981
  Beta  occ. eigenvalues --   -0.39170  -0.38505  -0.38475  -0.37127  -0.34689
  Beta  occ. eigenvalues --   -0.33855  -0.32736  -0.31258  -0.30706  -0.29819
  Beta  occ. eigenvalues --   -0.29311  -0.27208  -0.26829  -0.26344  -0.25390
  Beta  occ. eigenvalues --   -0.24626  -0.23287  -0.21190  -0.18199  -0.13822
  Beta  occ. eigenvalues --   -0.12145
  Beta virt. eigenvalues --    0.06981   0.07629   0.08335   0.08633   0.09639
  Beta virt. eigenvalues --    0.10133   0.10284   0.10467   0.10852   0.12043
  Beta virt. eigenvalues --    0.12141   0.12674   0.13503   0.13638   0.14152

 Mulliken charges and spin densities:
               1          2
     1  C    0.732277  -0.927878
     2  O   -0.023404   0.047644
     3  C   -1.121998   0.830630
     4  O   -0.213941   0.005835
     5  C    0.790448  -1.258735
     6  C    0.236475  -0.421073
     7  N    0.036518   0.179797
     8  C    0.546257  -0.742082
     9  C   -0.147690  -0.276929
    10  C    0.144197  -0.074222
    11  O   -0.338624   0.052657
    12  C   -0.190828  -0.133811
    13  H   -0.343849   0.503415
    14  H   -0.197565   0.358125
    15  H   -0.010307   0.174614
    16  H    0.152666   0.075354
    17  H   -0.627301   0.824572
    18  H   -0.483999   0.672240
    19  H    0.196296  -0.056427
    20  H   -0.508635   0.670119
    21  H    0.077066   0.021873
    22  H    0.152083   0.002648
    23  H   -0.149137   0.340446
    24  H    0.141625   0.095834
    25  H    0.151367   0.035355
 Sum of Mulliken charges =  -1.00000   1.00000

 Dipole moment (field-independent basis, Debye):
    X=             -0.5616    Y=              1.4840    Z=              2.1070  Tot=              2.6376
 Quadrupole moment (field-independent basis, Debye-Ang):
   XX=           -128.8059   YY=           -125.4705   ZZ=            -98.0473
   XY=              1.2745   XZ=             -5.4711   YZ=             -3.5679

 Summary of Natural Population Analysis:

                                       Natural Population
                Natural  -----------------------------------------------
    Atom  No    Charge         Core      Valence    Rydberg      Total
 -----------------------------------------------------------------------
      C    1   -0.10606      0.99959     2.09731    0.00915     3.10606
      O    2   -0.27691      0.99986     3.26795    0.00910     4.27691
      C    3    0.41283      0.99968     1.56125    0.02623     2.58717
      O    4   -0.31171      0.99987     3.30625    0.00559     4.31171
      C    5   -0.24096      0.99957     2.23157    0.00982     3.24096
      C    6   -0.07965      0.99961     2.06723    0.01282     3.07965
      N    7   -0.28099      0.99971     2.76807    0.01321     3.78099
      C    8   -0.08175      0.99963     2.07072    0.01140     3.08175
      C    9   -0.24595      0.99959     2.23765    0.00870     3.24595
      C   10    0.32237      0.99968     1.65736    0.02059     2.67763
      O   11   -0.27976      0.99987     3.27331    0.00658     4.27976
      C   12   -0.14161      0.99958     2.13116    0.01087     3.14161
      H   13    0.09279      0.00000     0.40587    0.00134     0.40721
      H   14    0.09114      0.00000     0.40772    0.00114     0.40886
      H   15    0.09230      0.00000     0.40656    0.00114     0.40770
      H   16    0.11293      0.00000     0.38500    0.00207     0.38707
      H   17    0.11882      0.00000     0.37857    0.00261     0.38118
      H   18    0.10179      0.00000     0.39556    0.00264     0.39821
      H   19    0.08717      0.00000     0.41123    0.00161     0.41283
      H   20    0.10166      0.00000     0.39592    0.00242     0.39834
      H   21    0.07702      0.00000     0.42156    0.00142     0.42298
      H   22    0.10786      0.00000     0.39130    0.00083     0.39214
      H   23    0.11672      0.00000     0.38112    0.00216     0.38328
      H   24    0.10962      0.00000     0.38851    0.00187     0.39038
      H   25    0.10032      0.00000     0.39850    0.00119     0.39968
 =======================================================================
   * Total *    0.00000     11.99625    33.83725    0.16650    46.00000

 Normal termination of Gaussian 16 at Wed Dec  9 17:41:29 2020.
