 Gaussian 16, Revision A.03,

 -----------------------------------------------------------
 # opt freq B3LYP/6-31G(d) empiricaldispersion=gd3bj scf=xqc
 -----------------------------------------------------------

 ------------------------------
 CID_66234382_JID_6179_neutraal
 ------------------------------
 Symbolic Z-matrix:
 Charge =  0 Multiplicity = 1

 SCF Done:  E(RB3LYP) =  -1104.18831827     A.U. after   15 cycles
 SCF Done:  E(RB3LYP) =  -1104.19096467     A.U. after   13 cycles
 SCF Done:  E(RB3LYP) =  -1104.18913803     A.U. after   13 cycles
 SCF Done:  E(RB3LYP) =  -1104.19400200     A.U. after   13 cycles
 SCF Done:  E(RB3LYP) =  -1104.19348424     A.U. after   15 cycles
 SCF Done:  E(RB3LYP) =  -1104.19674575     A.U. after   13 cycles
 SCF Done:  E(RB3LYP) =  -1104.19700123     A.U. after   13 cycles
 SCF Done:  E(RB3LYP) =  -1104.19770074     A.U. after   12 cycles
 SCF Done:  E(RB3LYP) =  -1104.19801718     A.U. after   12 cycles
 SCF Done:  E(RB3LYP) =  -1104.19811739     A.U. after   12 cycles
 SCF Done:  E(RB3LYP) =  -1104.19818749     A.U. after    8 cycles
 SCF Done:  E(RB3LYP) =  -1104.19818775     A.U. after    8 cycles
 SCF Done:  E(RB3LYP) =  -1104.19818780     A.U. after    8 cycles
 SCF Done:  E(RB3LYP) =  -1104.19818782     A.U. after    7 cycles
 SCF Done:  E(RB3LYP) =  -1104.19818785     A.U. after    7 cycles
 Optimization completed.
    -- Stationary point found.
 Normal termination of Gaussian 16 at Thu Dec 10 21:21:05 2020.

 --------------------------------------------------------------------
 #N Geom=AllCheck Guess=TCheck SCRF=Check GenChk RB3LYP/6-31G(d) Freq
 --------------------------------------------------------------------

 Structure from the checkpoint file:  "JID_6179.chk"
 ------------------------------
 CID_66234382_JID_6179_neutraal
 ------------------------------
 Charge =  0 Multiplicity = 1

 SCF Done:  E(RB3LYP) =  -1104.19818785     A.U. after    1 cycles

  Exact polarizability: 194.444   1.087 149.874  -3.799  -1.081 108.450
 Approx polarizability: 243.151  -1.503 254.803  -9.217  -3.812 169.234

                      1                      2                      3
                      A                      A                      A
 Frequencies --     17.2715                25.6259                34.9243
 Red. masses --      5.5262                 5.2454                 4.3584
 Frc consts  --      0.0010                 0.0020                 0.0031
 IR Inten    --      1.3111                 0.4159                 1.1448

                      4                      5                      6
                      A                      A                      A
 Frequencies --     66.1680                74.5722                99.7538
 Red. masses --      3.2920                 3.7753                 7.9407
 Frc consts  --      0.0085                 0.0124                 0.0466
 IR Inten    --      1.0170                 1.0959                 2.0196

                      7                      8                      9
                      A                      A                      A
 Frequencies --    129.0677               142.2413               159.9901
 Red. masses --      4.3819                 4.0215                 5.3970
 Frc consts  --      0.0430                 0.0479                 0.0814
 IR Inten    --      3.9798                 1.5724                 1.2232

                     10                     11                     12
                      A                      A                      A
 Frequencies --    186.6103               217.4139               242.4076
 Red. masses --      4.4236                 3.4360                 1.4692
 Frc consts  --      0.0908                 0.0957                 0.0509
 IR Inten    --      6.1705                 1.1840                 1.6658

                     13                     14                     15
                      A                      A                      A
 Frequencies --    260.8658               267.3674               311.3522
 Red. masses --      4.3273                 1.8539                 2.3249
 Frc consts  --      0.1735                 0.0781                 0.1328
 IR Inten    --      6.3370                 1.9217                 2.8533

                     16                     17                     18
                      A                      A                      A
 Frequencies --    318.0130               335.2927               367.7562
 Red. masses --      1.3385                 1.6925                 3.5946
 Frc consts  --      0.0798                 0.1121                 0.2864
 IR Inten    --     38.5664                12.5235                 1.4960

                     19                     20                     21
                      A                      A                      A
 Frequencies --    374.4819               389.3866               429.8719
 Red. masses --      1.6272                 1.8813                 2.3530
 Frc consts  --      0.1344                 0.1681                 0.2562
 IR Inten    --      7.7774                 3.3424                 6.4693

                     22                     23                     24
                      A                      A                      A
 Frequencies --    437.2335               555.1801               574.1292
 Red. masses --      5.2055                 3.0286                 2.1941
 Frc consts  --      0.5863                 0.5500                 0.4261
 IR Inten    --     12.0806                42.3278                11.7463

                     25                     26                     27
                      A                      A                      A
 Frequencies --    604.9346               618.4495               635.7451
 Red. masses --      2.9807                 4.3028                 4.5309
 Frc consts  --      0.6427                 0.9696                 1.0789
 IR Inten    --     28.3444                 8.9078                26.7824

                     28                     29                     30
                      A                      A                      A
 Frequencies --    653.8744               684.7751               729.2442
 Red. masses --      5.0627                 2.1806                 4.6387
 Frc consts  --      1.2753                 0.6024                 1.4534
 IR Inten    --      1.3124               104.3706                 8.3563

                     31                     32                     33
                      A                      A                      A
 Frequencies --    740.0660               758.6114               780.5252
 Red. masses --      5.2531                 6.0885                 2.6372
 Frc consts  --      1.6951                 2.0644                 0.9466
 IR Inten    --     12.7989                14.2647                 8.2413

                     34                     35                     36
                      A                      A                      A
 Frequencies --    808.0280               860.1255               864.7527
 Red. masses --      1.2994                 1.8386                 1.3741
 Frc consts  --      0.4999                 0.8014                 0.6054
 IR Inten    --     36.1148                32.3021                 4.2826

                     37                     38                     39
                      A                      A                      A
 Frequencies --    884.1504               919.0150               922.2723
 Red. masses --      1.5501                 1.7827                 1.7172
 Frc consts  --      0.7139                 0.8871                 0.8606
 IR Inten    --     39.2768               162.8583                91.1951

                     40                     41                     42
                      A                      A                      A
 Frequencies --    940.7504               979.0754               987.2685
 Red. masses --      1.5492                 4.0618                 1.8955
 Frc consts  --      0.8078                 2.2940                 1.0886
 IR Inten    --     45.2056                12.9344                14.3280

                     43                     44                     45
                      A                      A                      A
 Frequencies --   1008.3457              1011.5317              1055.6901
 Red. masses --      3.4148                 1.8199                 2.1321
 Frc consts  --      2.0457                 1.0971                 1.4000
 IR Inten    --      7.4786                 4.8610                 7.8088

                     46                     47                     48
                      A                      A                      A
 Frequencies --   1061.6246              1115.8734              1148.7326
 Red. masses --      1.3116                 1.6671                 1.6411
 Frc consts  --      0.8710                 1.2230                 1.2759
 IR Inten    --     31.4192                 9.3292                 7.6286

                     49                     50                     51
                      A                      A                      A
 Frequencies --   1164.3574              1196.8561              1230.6767
 Red. masses --      2.1435                 1.8351                 1.3186
 Frc consts  --      1.7122                 1.5488                 1.1767
 IR Inten    --     12.6815                12.4246                 5.1370

                     52                     53                     54
                      A                      A                      A
 Frequencies --   1243.2982              1245.9581              1249.6974
 Red. masses --      3.0333                 1.3001                 1.7458
 Frc consts  --      2.7626                 1.1891                 1.6064
 IR Inten    --     10.7992                 9.7965                24.1597

                     55                     56                     57
                      A                      A                      A
 Frequencies --   1289.4077              1298.3035              1311.9026
 Red. masses --      1.3699                 2.3575                 1.1680
 Frc consts  --      1.3419                 2.3413                 1.1844
 IR Inten    --     21.7403                30.9379                 6.4243

                     58                     59                     60
                      A                      A                      A
 Frequencies --   1341.8616              1342.4687              1386.1193
 Red. masses --      1.2276                 1.2094                 4.2292
 Frc consts  --      1.3024                 1.2841                 4.7875
 IR Inten    --      9.3425                25.5411               214.7015

                     61                     62                     63
                      A                      A                      A
 Frequencies --   1403.3150              1415.5321              1424.9010
 Red. masses --      1.4951                 1.4515                 1.3066
 Frc consts  --      1.7348                 1.7136                 1.5630
 IR Inten    --     11.8181                 9.3217                 2.6270

                     64                     65                     66
                      A                      A                      A
 Frequencies --   1428.8212              1447.8718              1459.7755
 Red. masses --      2.9821                 1.4565                 1.3761
 Frc consts  --      3.5869                 1.7990                 1.7278
 IR Inten    --     33.9528                15.9417                37.8737

                     67                     68                     69
                      A                      A                      A
 Frequencies --   1492.8875              1499.0046              1505.8704
 Red. masses --      1.1050                 1.1418                 1.0838
 Frc consts  --      1.4509                 1.5117                 1.4481
 IR Inten    --      7.6293                28.4881                 4.5431

                     70                     71                     72
                      A                      A                      A
 Frequencies --   1523.3438              1535.4193              1558.8127
 Red. masses --      1.0614                 1.0542                 6.4114
 Frc consts  --      1.4512                 1.4643                 9.1788
 IR Inten    --      3.4818                 1.6159               143.9099

                     73                     74                     75
                      A                      A                      A
 Frequencies --   1630.4623              1688.1960              1726.5960
 Red. masses --      5.9085                 1.0920                 1.0638
 Frc consts  --      9.2544                 1.8336                 1.8685
 IR Inten    --      1.4040                48.2687                34.1497

                     76                     77                     78
                      A                      A                      A
 Frequencies --   1769.8955              2940.6071              3033.6775
 Red. masses --      8.8868                 1.0826                 1.0624
 Frc consts  --     16.4017                 5.5158                 5.7607
 IR Inten    --    244.3841                92.7248                41.4866

                     79                     80                     81
                      A                      A                      A
 Frequencies --   3052.2151              3068.3630              3074.2845
 Red. masses --      1.0383                 1.0920                 1.0581
 Frc consts  --      5.6988                 6.0576                 5.8923
 IR Inten    --     22.0873                 9.5306                29.4577

                     82                     83                     84
                      A                      A                      A
 Frequencies --   3082.0405              3112.8531              3123.5283
 Red. masses --      1.0693                 1.1006                 1.1043
 Frc consts  --      5.9843                 6.2832                 6.3481
 IR Inten    --     25.4459                31.4856                 6.8795

                     85                     86                     87
                      A                      A                      A
 Frequencies --   3137.7453              3139.4357              3274.1835
 Red. masses --      1.1087                 1.1005                 1.0944
 Frc consts  --      6.4312                 6.3905                 6.9123
 IR Inten    --     19.4254                41.2034                 5.3709

                     88                     89                     90
                      A                      A                      A
 Frequencies --   3296.4323              3454.8506              3462.8546
 Red. masses --      1.0983                 1.0456                 1.0495
 Frc consts  --      7.0315                 7.3529                 7.4151
 IR Inten    --      4.1669                 2.8414                 0.7703

                     91                     92                     93
                      A                      A                      A
 Frequencies --   3545.7579              3550.0337              3589.3304
 Red. masses --      1.0978                 1.0931                 1.0769
 Frc consts  --      8.1322                 8.1167                 8.1742
 IR Inten    --      1.6248                 0.5707                42.8380

 - Thermochemistry -
 -------------------
 Temperature   298.150 Kelvin.  Pressure   1.00000 Atm.
 Atom     1 has atomic number  6 and mass  12.00000

 Molecular mass:   243.10415 amu.
 Principal axes and moments of inertia in atomic units:
                           1         2         3
     Eigenvalues --  1877.715148485.181119419.65897
           X            0.99999  -0.00305   0.00235
           Y            0.00307   0.99994  -0.01045
           Z           -0.00231   0.01045   0.99994
 This molecule is an asymmetric top.
 Rotational symmetry number  1.
 Warning -- assumption of classical behavior for rotation
           may cause significant error
 Rotational temperatures (Kelvin)      0.04613     0.01021     0.00920
 Rotational constants (GHZ):           0.96114     0.21269     0.19159
 Zero-point vibrational energy     726972.1 (Joules/Mol)
                                  173.75050 (Kcal/Mol)
 Warning -- explicit consideration of  26 degrees of freedom as
           vibrations may cause significant error
 Vibrational temperatures:     24.85    36.87    50.25    95.20   107.29
          (Kelvin)            143.52   185.70   204.65   230.19   268.49
                              312.81   348.77   375.33   384.68   447.97
                              457.55   482.41   529.12   538.80   560.24
                              618.49   629.08   798.78   826.04   870.37
                              889.81   914.70   940.78   985.24  1049.22
                             1064.79  1091.47  1123.00  1162.57  1237.53
                             1244.19  1272.10  1322.26  1326.94  1353.53
                             1408.67  1420.46  1450.78  1455.37  1518.90
                             1527.44  1605.49  1652.77  1675.25  1722.01
                             1770.67  1788.83  1792.66  1798.04  1855.17
                             1867.97  1887.54  1930.64  1931.51  1994.32
                             2019.06  2036.63  2050.11  2055.76  2083.16
                             2100.29  2147.93  2156.73  2166.61  2191.75
                             2209.13  2242.78  2345.87  2428.94  2484.19
                             2546.48  4230.88  4364.79  4391.46  4414.69
                             4423.21  4434.37  4478.70  4494.06  4514.52
                             4516.95  4710.82  4742.83  4970.76  4982.28
                             5101.55  5107.71  5164.25

 Zero-point correction=                           0.276889 (Hartree/Particle)
 Thermal correction to Energy=                    0.294268
 Thermal correction to Enthalpy=                  0.295213
 Thermal correction to Gibbs Free Energy=         0.229340
 Sum of electronic and zero-point Energies=          -1103.921299
 Sum of electronic and thermal Energies=             -1103.903919
 Sum of electronic and thermal Enthalpies=           -1103.902975
 Sum of electronic and thermal Free Energies=        -1103.968848

                     E (Thermal)             CV                S
                      KCal/Mol        Cal/Mol-Kelvin    Cal/Mol-Kelvin
 Total                  184.656             64.031            138.642
 Electronic               0.000              0.000              0.000
 Translational            0.889              2.981             42.366
 Rotational               0.889              2.981             33.373
 Vibrational            182.879             58.070             62.903
 Vibration     1          0.593              1.986              6.925
 Vibration     2          0.593              1.985              6.142
 Vibration     3          0.594              1.983              5.528
 Vibration     4          0.598              1.970              4.264
 Vibration     5          0.599              1.966              4.029
 Vibration     6          0.604              1.949              3.459
 Vibration     7          0.612              1.924              2.960
 Vibration     8          0.616              1.911              2.774
 Vibration     9          0.622              1.891              2.550
 Vibration    10          0.632              1.858              2.261
 Vibration    11          0.646              1.815              1.981
 Vibration    12          0.659              1.775              1.785
 Vibration    13          0.669              1.744              1.656
 Vibration    14          0.672              1.733              1.613
 Vibration    15          0.700              1.652              1.355
 Vibration    16          0.704              1.639              1.320
 Vibration    17          0.716              1.605              1.234
 Vibration    18          0.740              1.539              1.089
 Vibration    19          0.746              1.524              1.061
 Vibration    20          0.757              1.493              1.002
 Vibration    21          0.791              1.405              0.859
 Vibration    22          0.798              1.389              0.835
 Vibration    23          0.911              1.128              0.534
 Vibration    24          0.930              1.087              0.496
 Vibration    25          0.963              1.021              0.441
 Vibration    26          0.978              0.993              0.419

 Optimization completed.
    -- Stationary point found.
 Normal termination of Gaussian 16 at Thu Dec 10 21:30:37 2020.

 ----------------------------------------------------------------------
 # B3LYP/6-311++G(d,p) empiricaldispersion=gd3bj scf=xqc pop=npa geom=c
 heck
 ----------------------------------------------------------------------

 --------------------------------------
 CID_66234382_JID_6179_Energie_neutraal
 --------------------------------------
 Structure from the checkpoint file:  "JID_6179.chk"
 Charge =  0 Multiplicity = 1

 SCF Done:  E(RB3LYP) =  -1104.44202447     A.U. after   15 cycles
 Normal termination of Gaussian 16 at Thu Dec 10 21:35:37 2020.

 ----------------------------------------------------------------------
 # B3LYP/6-311++G(d,p) empiricaldispersion=gd3bj scf=xqc pop=npa geom=c
 heck
 ----------------------------------------------------------------------

 ------------------------------------
 CID_66234382_JID_6179_Energie_kation
 ------------------------------------
 Structure from the checkpoint file:  "JID_6179.chk"
 Charge =  1 Multiplicity = 2

 SCF Done:  E(UB3LYP) =  -1104.15086476     A.U. after   30 cycles
 Normal termination of Gaussian 16 at Thu Dec 10 21:49:31 2020.
 Gaussian 16:  ES64L-G16RevA.03 25-Dec-2016

 ----------------------------------------------------------------------
 # B3LYP/6-311++G(d,p) empiricaldispersion=gd3bj scf=xqc pop=npa geom=c
 heck
 ----------------------------------------------------------------------

 -----------------------------------
 CID_66234382_JID_6179_Energie_anion
 -----------------------------------
 Structure from the checkpoint file:  "JID_6179.chk"
 Charge = -1 Multiplicity = 2

                         Standard orientation:
 ---------------------------------------------------------------------
 Center     Atomic      Atomic             Coordinates (Angstroms)
 Number     Number       Type             X           Y           Z
 ---------------------------------------------------------------------
      1          6           0       -3.391988    2.230186   -0.455817
      2          6           0       -4.074296    0.890088   -0.174120
      3          6           0       -3.696044   -0.195661   -1.194217
      4          6           0       -2.225848   -0.635982   -1.269798
      5         16           0       -1.693334   -1.929910   -0.074940
      6          6           0       -0.902202   -0.925118    1.263542
      7          6           0        0.274079   -0.147047    0.817732
      8          6           0        0.455312    1.194133    0.593573
      9          6           0        1.800289    1.350765    0.149219
     10          6           0        2.357830    0.093386    0.122827
     11          8           0        1.419367   -0.817305    0.531586
     12          6           0        3.653404   -0.514671   -0.254886
     13          8           0        3.790147   -1.727124   -0.350544
     14          7           0        4.712354    0.331429   -0.526752
     15          7           0        4.859534    1.672825   -0.129232
     16          7           0       -3.742414    0.467139    1.194913
     17          1           0       -2.303968    2.139583   -0.386902
     18          1           0       -3.710247    2.987335    0.270914
     19          1           0       -3.649366    2.596963   -1.455539
     20          1           0       -5.161620    1.045284   -0.299032
     21          1           0       -4.319785   -1.082006   -1.020525
     22          1           0       -3.982597    0.187787   -2.183400
     23          1           0       -2.044684   -1.086314   -2.250309
     24          1           0       -1.533862    0.207329   -1.186034
     25          1           0       -1.663918   -0.249439    1.661198
     26          1           0       -0.618477   -1.662120    2.021029
     27          1           0       -0.281698    1.968388    0.751278
     28          1           0        2.273922    2.278875   -0.129016
     29          1           0        5.588975   -0.163717   -0.638930
     30          1           0        4.375176    2.274700   -0.791690
     31          1           0        4.443704    1.813612    0.790480
     32          1           0       -4.180624    1.098854    1.863699
     33          1           0       -4.123235   -0.461369    1.372643
 ---------------------------------------------------------------------

 SCF Done:  E(UB3LYP) =  -1104.44297802     A.U. after   33 cycles
 SCF Done:  E(UB3LYP) =  -1104.44297802     a.u. after    1 cycles

 The electronic state is 2-A.
 Alpha  occ. eigenvalues --  -88.72247 -19.05591 -18.95871 -14.24655 -14.24359
 Alpha  occ. eigenvalues --  -14.19549 -10.14477 -10.10598 -10.10351 -10.10245
 Alpha  occ. eigenvalues --  -10.09094 -10.08570 -10.07262 -10.06361 -10.05984
 Alpha  occ. eigenvalues --  -10.05724  -7.80866  -5.77264  -5.76909  -5.76220
 Alpha  occ. eigenvalues --   -0.99144  -0.92119  -0.87008  -0.79371  -0.70533
 Alpha  occ. eigenvalues --   -0.69452  -0.68633  -0.67463  -0.64009  -0.60876
 Alpha  occ. eigenvalues --   -0.56605  -0.52103  -0.49380  -0.48986  -0.45692
 Alpha  occ. eigenvalues --   -0.44020  -0.42662  -0.41889  -0.39812  -0.38757
 Alpha  occ. eigenvalues --   -0.37788  -0.36505  -0.35190  -0.34166  -0.32493
 Alpha  occ. eigenvalues --   -0.31509  -0.30867  -0.30103  -0.29697  -0.29081
 Alpha  occ. eigenvalues --   -0.28458  -0.27890  -0.27322  -0.25287  -0.25227
 Alpha  occ. eigenvalues --   -0.24247  -0.23107  -0.19974  -0.19579  -0.17353
 Alpha  occ. eigenvalues --   -0.15051  -0.14851  -0.13827  -0.12024  -0.11011
 Alpha  occ. eigenvalues --    0.03900
 Alpha virt. eigenvalues --    0.05368   0.06997   0.07673   0.08082   0.08913
 Alpha virt. eigenvalues --    0.09530   0.09958   0.10357   0.10487   0.11301
 Alpha virt. eigenvalues --    0.11587   0.11741   0.12877   0.13347   0.13859

  Beta  occ. eigenvalues --  -88.72223 -19.05380 -18.95667 -14.24653 -14.24315
  Beta  occ. eigenvalues --  -14.19520 -10.14314 -10.10402 -10.10334 -10.10141
  Beta  occ. eigenvalues --  -10.09089 -10.08574 -10.07248 -10.06341 -10.05856
  Beta  occ. eigenvalues --  -10.05784  -7.80841  -5.77219  -5.76880  -5.76203
  Beta  occ. eigenvalues --   -0.98793  -0.91835  -0.86837  -0.79321  -0.70403
  Beta  occ. eigenvalues --   -0.69312  -0.68454  -0.67305  -0.63864  -0.60719
  Beta  occ. eigenvalues --   -0.56468  -0.51822  -0.49265  -0.48867  -0.45613
  Beta  occ. eigenvalues --   -0.43841  -0.42563  -0.41819  -0.39754  -0.38612
  Beta  occ. eigenvalues --   -0.37737  -0.36367  -0.34949  -0.33489  -0.32357
  Beta  occ. eigenvalues --   -0.31435  -0.30683  -0.30001  -0.29621  -0.28944
  Beta  occ. eigenvalues --   -0.28296  -0.27532  -0.26802  -0.25203  -0.25025
  Beta  occ. eigenvalues --   -0.24149  -0.23037  -0.19873  -0.19470  -0.16595
  Beta  occ. eigenvalues --   -0.14809  -0.14433  -0.13610  -0.11529  -0.10461
  Beta virt. eigenvalues --    0.06241   0.06910   0.08037   0.08093   0.08405
  Beta virt. eigenvalues --    0.09203   0.09566   0.10077   0.10370   0.10681
  Beta virt. eigenvalues --    0.11431   0.11629   0.11943   0.13275   0.13325

 Mulliken charges and spin densities:
               1          2
     1  C    0.101356  -0.691350
     2  C    0.024167   0.045637
     3  C    0.241555  -0.795993
     4  C   -0.189085   0.037610
     5  S    0.071041  -0.062916
     6  C   -0.858427   0.197190
     7  C    0.276922   0.009076
     8  C   -0.273376  -0.052858
     9  C   -0.064626   0.051415
    10  C   -0.114444   0.141280
    11  O    0.045725   0.045569
    12  C    0.030666   0.060485
    13  O   -0.395190   0.074350
    14  N   -0.295969   0.004415
    15  N   -0.382259   0.008244
    16  N   -0.361479  -0.096334
    17  H    0.184794  -0.077494
    18  H   -0.241462   0.384522
    19  H    0.056163   0.059973
    20  H   -0.622981   0.820086
    21  H   -0.038842   0.194217
    22  H   -0.025020   0.146552
    23  H    0.231930   0.018385
    24  H    0.074469   0.023655
    25  H    0.304698  -0.047613
    26  H    0.185240   0.059995
    27  H    0.080224   0.045016
    28  H    0.117695  -0.007249
    29  H    0.308398  -0.002912
    30  H    0.218541   0.008528
    31  H    0.218867   0.009328
    32  H   -0.010274   0.249422
    33  H    0.100980   0.139773
 Sum of Mulliken charges =  -1.00000   1.00000

 Dipole moment (field-independent basis, Debye):
    X=              2.0880    Y=              3.2421    Z=             -0.0890  Tot=              3.8573
 Quadrupole moment (field-independent basis, Debye-Ang):
   XX=           -198.1250   YY=           -136.6911   ZZ=           -118.7960
   XY=             19.9366   XZ=              4.2322   YZ=             -4.2231

 Summary of Natural Population Analysis:

                                       Natural Population
                Natural  -----------------------------------------------
    Atom  No    Charge         Core      Valence    Rydberg      Total
 -----------------------------------------------------------------------
      C    1   -0.28893      0.99964     2.28241    0.00688     3.28893
      C    2   -0.01272      0.99961     1.99946    0.01365     3.01272
      C    3   -0.19725      0.99959     2.18620    0.01145     3.19725
      C    4   -0.25954      0.99958     2.24876    0.01121     3.25954
      S    5    0.08693      4.99964     2.89630    0.01713     7.91307
      C    6   -0.27531      0.99952     2.26411    0.01168     3.27531
      C    7    0.18752      0.99946     1.79886    0.01416     2.81248
      C    8   -0.17433      0.99950     2.16707    0.00775     3.17433
      C    9   -0.11899      0.99954     2.11122    0.00823     3.11899
      C   10    0.11126      0.99945     1.87598    0.01332     2.88874
      O   11   -0.20343      0.99985     3.19529    0.00830     4.20343
      C   12    0.32741      0.99962     1.65170    0.02127     2.67259
      O   13   -0.29789      0.99988     3.29120    0.00681     4.29789
      N   14   -0.23884      0.99968     2.72546    0.01370     3.73884
      N   15   -0.32302      0.99978     2.81182    0.01143     3.82302
      N   16   -0.43129      0.99976     2.91904    0.01249     3.93129
      H   17    0.09935      0.00000     0.39926    0.00139     0.40065
      H   18    0.09896      0.00000     0.40006    0.00097     0.40104
      H   19    0.09774      0.00000     0.40141    0.00085     0.40226
      H   20    0.07993      0.00000     0.41608    0.00399     0.42007
      H   21    0.09999      0.00000     0.39845    0.00156     0.40001
      H   22    0.09865      0.00000     0.40023    0.00112     0.40135
      H   23    0.10340      0.00000     0.39573    0.00087     0.39660
      H   24    0.11022      0.00000     0.38840    0.00138     0.38978
      H   25    0.12829      0.00000     0.37003    0.00168     0.37171
      H   26    0.11148      0.00000     0.38734    0.00118     0.38852
      H   27    0.10588      0.00000     0.39285    0.00127     0.39412
      H   28    0.09629      0.00000     0.40240    0.00131     0.40371
      H   29    0.18152      0.00000     0.31552    0.00296     0.31848
      H   30    0.16867      0.00000     0.32944    0.00189     0.33133
      H   31    0.17242      0.00000     0.32508    0.00250     0.32758
      H   32    0.17684      0.00000     0.32129    0.00188     0.32316
      H   33    0.17879      0.00000     0.31913    0.00208     0.32121
 =======================================================================
   * Total *    0.00000     19.99409    44.78756    0.21834    65.00000

 Normal termination of Gaussian 16 at Thu Dec 10 22:05:23 2020.
