 Gaussian 16, Revision A.03,

 -----------------------------------------------------------
 # opt freq B3LYP/6-31G(d) empiricaldispersion=gd3bj scf=xqc
 -----------------------------------------------------------

 -------------------------------
 CID_121817355_JID_9683_neutraal
 -------------------------------
 Symbolic Z-matrix:
 Charge =  0 Multiplicity = 1

 SCF Done:  E(RB3LYP) =  -879.587311021     A.U. after   15 cycles
 SCF Done:  E(RB3LYP) =  -879.593212201     A.U. after   13 cycles
 SCF Done:  E(RB3LYP) =  -879.590911592     A.U. after   13 cycles
 SCF Done:  E(RB3LYP) =  -879.593929297     A.U. after   12 cycles
 SCF Done:  E(RB3LYP) =  -879.594346631     A.U. after   12 cycles
 SCF Done:  E(RB3LYP) =  -879.594620548     A.U. after   12 cycles
 SCF Done:  E(RB3LYP) =  -879.594754047     A.U. after   13 cycles
 SCF Done:  E(RB3LYP) =  -879.594982247     A.U. after   12 cycles
 SCF Done:  E(RB3LYP) =  -879.595247842     A.U. after   14 cycles
 SCF Done:  E(RB3LYP) =  -879.595535600     A.U. after   12 cycles
 SCF Done:  E(RB3LYP) =  -879.597575971     A.U. after   10 cycles
 SCF Done:  E(RB3LYP) =  -879.597576834     A.U. after    9 cycles
 SCF Done:  E(RB3LYP) =  -879.597577076     A.U. after    9 cycles
 SCF Done:  E(RB3LYP) =  -879.597577109     A.U. after    7 cycles
 SCF Done:  E(RB3LYP) =  -879.597577117     A.U. after    7 cycles
 Optimization completed on the basis of negligible forces.
    -- Stationary point found.
 Normal termination of Gaussian 16 at Sun Dec 13 13:09:54 2020.

 --------------------------------------------------------------------
 #N Geom=AllCheck Guess=TCheck SCRF=Check GenChk RB3LYP/6-31G(d) Freq
 --------------------------------------------------------------------

 Structure from the checkpoint file:  "JID_9683.chk"
 -------------------------------
 CID_121817355_JID_9683_neutraal
 -------------------------------
 Charge =  0 Multiplicity = 1

 SCF Done:  E(RB3LYP) =  -879.597577117     A.U. after    1 cycles

  Exact polarizability: 221.572  23.909 133.241  -8.112  14.948 143.507
 Approx polarizability: 280.525  36.153 206.494 -13.557  43.487 252.603

                      1                      2                      3
                      A                      A                      A
 Frequencies --     15.5947                19.9202                31.8063
 Red. masses --      1.0509                 5.3878                 4.6677
 Frc consts  --      0.0002                 0.0013                 0.0028
 IR Inten    --      0.1888                 0.0420                 0.3363

                      4                      5                      6
                      A                      A                      A
 Frequencies --     44.7478                50.9222                87.8391
 Red. masses --      4.5088                 6.3631                 4.8769
 Frc consts  --      0.0053                 0.0097                 0.0222
 IR Inten    --      1.1937                 0.6242                 0.7080

                      7                      8                      9
                      A                      A                      A
 Frequencies --    114.9053               150.1165               162.8132
 Red. masses --      4.6695                 4.4213                 3.9003
 Frc consts  --      0.0363                 0.0587                 0.0609
 IR Inten    --      1.2118                 5.6667                 2.8201

                     10                     11                     12
                      A                      A                      A
 Frequencies --    178.7086               212.9948               219.6857
 Red. masses --      3.0962                 2.6286                 1.2011
 Frc consts  --      0.0583                 0.0703                 0.0342
 IR Inten    --      2.8762                 1.0152                 0.4438

                     13                     14                     15
                      A                      A                      A
 Frequencies --    234.6974               247.5161               279.0987
 Red. masses --      3.2036                 3.4840                 4.1045
 Frc consts  --      0.1040                 0.1258                 0.1884
 IR Inten    --      2.4065                 0.8594                 0.6512

                     16                     17                     18
                      A                      A                      A
 Frequencies --    313.0197               344.2671               366.2141
 Red. masses --      4.1019                 4.2372                 4.4222
 Frc consts  --      0.2368                 0.2959                 0.3494
 IR Inten    --      3.5923                 0.9807                 5.2580

                     19                     20                     21
                      A                      A                      A
 Frequencies --    391.4081               419.9466               420.8478
 Red. masses --      3.6146                 3.5688                 3.2881
 Frc consts  --      0.3263                 0.3708                 0.3431
 IR Inten    --      4.3008                 1.2889                 0.4016

                     22                     23                     24
                      A                      A                      A
 Frequencies --    455.6870               472.7843               508.6129
 Red. masses --      3.3690                 2.6147                 1.8797
 Frc consts  --      0.4122                 0.3444                 0.2865
 IR Inten    --     16.7077                 6.4308                21.1566

                     25                     26                     27
                      A                      A                      A
 Frequencies --    529.8093               556.2278               617.9255
 Red. masses --      2.6845                 4.3457                 4.6345
 Frc consts  --      0.4440                 0.7922                 1.0426
 IR Inten    --      3.3826                 8.0358                 9.5801

                     28                     29                     30
                      A                      A                      A
 Frequencies --    647.6182               661.7051               672.6093
 Red. masses --      5.0112                 5.8244                 5.4197
 Frc consts  --      1.2383                 1.5026                 1.4446
 IR Inten    --      8.2503                10.5826                28.9249

                     31                     32                     33
                      A                      A                      A
 Frequencies --    680.5190               719.7476               723.7587
 Red. masses --      1.4850                 4.8693                 3.3778
 Frc consts  --      0.4052                 1.4862                 1.0425
 IR Inten    --     89.7092                 5.6606                 3.0118

                     34                     35                     36
                      A                      A                      A
 Frequencies --    768.1678               800.5830               824.6160
 Red. masses --      2.6560                 3.1204                 1.4763
 Frc consts  --      0.9234                 1.1783                 0.5915
 IR Inten    --      3.1370                10.5790                18.9522

                     37                     38                     39
                      A                      A                      A
 Frequencies --    841.9853               848.3238               855.4185
 Red. masses --      5.3169                 3.8872                 1.3202
 Frc consts  --      2.2209                 1.6482                 0.5692
 IR Inten    --      5.5994                10.1763                15.0821

                     40                     41                     42
                      A                      A                      A
 Frequencies --    917.2788               942.3893               952.0513
 Red. masses --      1.8871                 1.3305                 4.3656
 Frc consts  --      0.9355                 0.6962                 2.3314
 IR Inten    --      4.1449                 0.1782                11.3742

                     43                     44                     45
                      A                      A                      A
 Frequencies --    981.8807               982.8865              1008.1268
 Red. masses --      2.5006                 1.2890                 2.5863
 Frc consts  --      1.4204                 0.7337                 1.5487
 IR Inten    --     24.9018                 1.8598                16.1928

                     46                     47                     48
                      A                      A                      A
 Frequencies --   1019.3642              1043.0611              1054.2832
 Red. masses --      1.4477                 2.7414                 2.4187
 Frc consts  --      0.8863                 1.7573                 1.5840
 IR Inten    --      4.2458                 1.5984                14.2500

                     49                     50                     51
                      A                      A                      A
 Frequencies --   1076.2196              1088.2442              1125.7518
 Red. masses --      1.5051                 1.9091                 1.9212
 Frc consts  --      1.0271                 1.3321                 1.4345
 IR Inten    --      5.4543                29.7832                55.5677

                     52                     53                     54
                      A                      A                      A
 Frequencies --   1138.6679              1158.9887              1167.3232
 Red. masses --      3.3156                 1.4263                 1.5446
 Frc consts  --      2.5328                 1.1288                 1.2400
 IR Inten    --     15.6967                 7.9463                61.9161

                     55                     56                     57
                      A                      A                      A
 Frequencies --   1169.2703              1201.8847              1227.7253
 Red. masses --      2.2604                 1.8618                 1.3764
 Frc consts  --      1.8208                 1.5846                 1.2224
 IR Inten    --    197.2875                27.9327                 2.9735

                     58                     59                     60
                      A                      A                      A
 Frequencies --   1232.2077              1248.0759              1251.7830
 Red. masses --      1.1859                 1.2533                 2.7666
 Frc consts  --      1.0609                 1.1502                 2.5542
 IR Inten    --      2.5312                13.6271                 0.2017

                     61                     62                     63
                      A                      A                      A
 Frequencies --   1268.7199              1296.8558              1309.1312
 Red. masses --      3.2438                 1.6284                 1.5199
 Frc consts  --      3.0763                 1.6136                 1.5348
 IR Inten    --     34.7570                21.8889                11.3931

                     64                     65                     66
                      A                      A                      A
 Frequencies --   1331.7587              1339.0511              1351.9227
 Red. masses --      1.5226                 2.2708                 5.1542
 Frc consts  --      1.5910                 2.3990                 5.5503
 IR Inten    --     13.7572               152.4765                 9.2305

                     67                     68                     69
                      A                      A                      A
 Frequencies --   1366.7131              1370.2673              1380.6220
 Red. masses --      1.3657                 1.6565                 1.7456
 Frc consts  --      1.5030                 1.8326                 1.9604
 IR Inten    --      9.2078                47.7694                22.5050

                     70                     71                     72
                      A                      A                      A
 Frequencies --   1417.1035              1426.0457              1439.2135
 Red. masses --      1.4406                 1.8197                 1.9779
 Frc consts  --      1.7045                 2.1803                 2.4138
 IR Inten    --     47.0296                12.9743               115.6681

                     73                     74                     75
                      A                      A                      A
 Frequencies --   1444.3200              1473.8435              1474.8218
 Red. masses --      1.3299                 2.6403                 1.0974
 Frc consts  --      1.6346                 3.3792                 1.4064
 IR Inten    --     13.1034                20.9480                12.3834

                     76                     77                     78
                      A                      A                      A
 Frequencies --   1491.0299              1507.5902              1515.4522
 Red. masses --      1.1342                 1.0910                 1.0454
 Frc consts  --      1.4856                 1.4610                 1.4146
 IR Inten    --     15.5052                12.5233                 4.6391

                     79                     80                     81
                      A                      A                      A
 Frequencies --   1516.9969              1526.7925              1554.2220
 Red. masses --      1.0845                 1.1296                 1.0561
 Frc consts  --      1.4704                 1.5514                 1.5031
 IR Inten    --      7.6797                 6.6702                 7.7459

                     82                     83                     84
                      A                      A                      A
 Frequencies --   1561.5575              1570.0363              1631.5797
 Red. masses --      1.2970                 1.8622                 5.7697
 Frc consts  --      1.8634                 2.7046                 9.0494
 IR Inten    --    113.4886                68.3791                 6.9904

                     85                     86                     87
                      A                      A                      A
 Frequencies --   1679.2413              1788.6383              1833.9125
 Red. masses --      5.7321                11.7680                 9.4268
 Frc consts  --      9.5234                22.1818                18.6797
 IR Inten    --     14.7428               249.7807               236.8630

                     88                     89                     90
                      A                      A                      A
 Frequencies --   3003.2496              3041.6272              3046.9289
 Red. masses --      1.0468                 1.0379                 1.0717
 Frc consts  --      5.5628                 5.6572                 5.8618
 IR Inten    --     60.6863                44.5790                29.4219

                     91                     92                     93
                      A                      A                      A
 Frequencies --   3050.2719              3067.9087              3070.1199
 Red. masses --      1.0799                 1.0591                 1.0870
 Frc consts  --      5.9198                 5.8732                 6.0368
 IR Inten    --     14.5544                31.3277                39.9646

                     94                     95                     96
                      A                      A                      A
 Frequencies --   3081.5711              3093.5468              3104.4938
 Red. masses --      1.0732                 1.1000                 1.0942
 Frc consts  --      6.0045                 6.2026                 6.2134
 IR Inten    --     31.8065                21.3493                 3.7706

                     97                     98                     99
                      A                      A                      A
 Frequencies --   3108.9488              3111.9695              3123.1662
 Red. masses --      1.1033                 1.1051                 1.1011
 Frc consts  --      6.2831                 6.3053                 6.3281
 IR Inten    --     26.3228                31.7005                18.0685

                    100                    101                    102
                      A                      A                      A
 Frequencies --   3169.8823              3178.5649              3181.1901
 Red. masses --      1.0961                 1.0900                 1.0894
 Frc consts  --      6.4890                 6.4885                 6.4955
 IR Inten    --      8.7384                22.4593                22.0889

                    103                    104                    105
                      A                      A                      A
 Frequencies --   3231.1682              3281.5800              3678.0430
 Red. masses --      1.0909                 1.0917                 1.0641
 Frc consts  --      6.7105                 6.9264                 8.4817
 IR Inten    --     10.1123                 5.2805                38.9692

 - Thermochemistry -
 -------------------
 Temperature   298.150 Kelvin.  Pressure   1.00000 Atm.
 Atom     1 has atomic number  6 and mass  12.00000

 Molecular mass:   262.13174 amu.
 Principal axes and moments of inertia in atomic units:
                           1         2         3
     Eigenvalues --  2481.322458437.943449062.19088
           X            0.99989   0.01396  -0.00443
           Y           -0.01402   0.99981  -0.01390
           Z            0.00423   0.01396   0.99989
 This molecule is an asymmetric top.
 Rotational symmetry number  1.
 Warning -- assumption of classical behavior for rotation
           may cause significant error
 Rotational temperatures (Kelvin)      0.03491     0.01026     0.00956
 Rotational constants (GHZ):           0.72733     0.21388     0.19915
 Zero-point vibrational energy     813295.0 (Joules/Mol)
                                  194.38217 (Kcal/Mol)
 Warning -- explicit consideration of  27 degrees of freedom as
           vibrations may cause significant error
 Vibrational temperatures:     22.44    28.66    45.76    64.38    73.27
          (Kelvin)            126.38   165.32   215.98   234.25   257.12
                              306.45   316.08   337.68   356.12   401.56
                              450.37   495.32   526.90   563.15   604.21
                              605.51   655.63   680.23   731.78   762.28
                              800.29   889.06   931.78   952.05   967.73
                              979.12  1035.56  1041.33  1105.22  1151.86
                             1186.44  1211.43  1220.55  1230.76  1319.76
                             1355.89  1369.79  1412.71  1414.15  1450.47
                             1466.64  1500.73  1516.88  1548.44  1565.74
                             1619.71  1638.29  1667.53  1679.52  1682.32
                             1729.24  1766.42  1772.87  1795.70  1801.04
                             1825.40  1865.89  1883.55  1916.10  1926.60
                             1945.12  1966.40  1971.51  1986.41  2038.90
                             2051.76  2070.71  2078.05  2120.53  2121.94
                             2145.26  2169.09  2180.40  2182.62  2196.71
                             2236.18  2246.73  2258.93  2347.48  2416.05
                             2573.45  2638.59  4321.01  4376.22  4383.85
                             4388.66  4414.04  4417.22  4433.69  4450.92
                             4466.67  4473.08  4477.43  4493.54  4560.75
                             4573.25  4577.02  4648.93  4721.46  5291.88

 Zero-point correction=                           0.309768 (Hartree/Particle)
 Thermal correction to Energy=                    0.327976
 Thermal correction to Enthalpy=                  0.328920
 Thermal correction to Gibbs Free Energy=         0.260455
 Sum of electronic and zero-point Energies=           -879.287809
 Sum of electronic and thermal Energies=              -879.269601
 Sum of electronic and thermal Enthalpies=            -879.268657
 Sum of electronic and thermal Free Energies=         -879.337122

                     E (Thermal)             CV                S
                      KCal/Mol        Cal/Mol-Kelvin    Cal/Mol-Kelvin
 Total                  205.808             68.140            144.097
 Electronic               0.000              0.000              0.000
 Translational            0.889              2.981             42.591
 Rotational               0.889              2.981             33.606
 Vibrational            204.031             62.179             67.901
 Vibration     1          0.593              1.986              7.128
 Vibration     2          0.593              1.986              6.642
 Vibration     3          0.594              1.983              5.713
 Vibration     4          0.595              1.980              5.037
 Vibration     5          0.595              1.977              4.781
 Vibration     6          0.601              1.958              3.708
 Vibration     7          0.608              1.937              3.184
 Vibration     8          0.618              1.903              2.671
 Vibration     9          0.623              1.888              2.517
 Vibration    10          0.629              1.868              2.342
 Vibration    11          0.644              1.821              2.018
 Vibration    12          0.647              1.811              1.962
 Vibration    13          0.655              1.788              1.843
 Vibration    14          0.661              1.767              1.748
 Vibration    15          0.679              1.712              1.539
 Vibration    16          0.701              1.649              1.346
 Vibration    17          0.723              1.587              1.192
 Vibration    18          0.739              1.542              1.096
 Vibration    19          0.759              1.489              0.995
 Vibration    20          0.783              1.427              0.892
 Vibration    21          0.783              1.425              0.889
 Vibration    22          0.814              1.348              0.779
 Vibration    23          0.830              1.310              0.730
 Vibration    24          0.864              1.231              0.637
 Vibration    25          0.885              1.184              0.588
 Vibration    26          0.912              1.126              0.531
 Vibration    27          0.978              0.994              0.420

 Optimization completed on the basis of negligible forces.
    -- Stationary point found.
 Normal termination of Gaussian 16 at Sun Dec 13 13:30:11 2020.

 ----------------------------------------------------------------------
 # B3LYP/6-311++G(d,p) empiricaldispersion=gd3bj scf=xqc pop=npa geom=c
 heck
 ----------------------------------------------------------------------

 ---------------------------------------
 CID_121817355_JID_9683_Energie_neutraal
 ---------------------------------------
 Structure from the checkpoint file:  "JID_9683.chk"
 Charge =  0 Multiplicity = 1

 SCF Done:  E(RB3LYP) =  -879.847628031     A.U. after   15 cycles
 Normal termination of Gaussian 16 at Sun Dec 13 13:39:09 2020.

 ----------------------------------------------------------------------
 # B3LYP/6-311++G(d,p) empiricaldispersion=gd3bj scf=xqc pop=npa geom=c
 heck
 ----------------------------------------------------------------------

 -------------------------------------
 CID_121817355_JID_9683_Energie_kation
 -------------------------------------
 Structure from the checkpoint file:  "JID_9683.chk"
 Charge =  1 Multiplicity = 2

 SCF Done:  E(UB3LYP) =  -879.571575910     A.U. after   25 cycles
 Normal termination of Gaussian 16 at Sun Dec 13 13:59:29 2020.
 Gaussian 16:  ES64L-G16RevA.03 25-Dec-2016

 ----------------------------------------------------------------------
 # B3LYP/6-311++G(d,p) empiricaldispersion=gd3bj scf=xqc pop=npa geom=c
 heck
 ----------------------------------------------------------------------

 ------------------------------------
 CID_121817355_JID_9683_Energie_anion
 ------------------------------------
 Structure from the checkpoint file:  "JID_9683.chk"
 Charge = -1 Multiplicity = 2

                         Standard orientation:
 ---------------------------------------------------------------------
 Center     Atomic      Atomic             Coordinates (Angstroms)
 Number     Number       Type             X           Y           Z
 ---------------------------------------------------------------------
      1          6           0        5.754450    0.678207   -0.359057
      2          6           0        4.307844    0.311768   -0.137180
      3          6           0        3.580271    0.823175    0.938700
      4          6           0        2.247206    0.474591    1.149704
      5          6           0        1.595020   -0.407907    0.275931
      6          6           0        2.315475   -0.929949   -0.813829
      7          6           0        3.643729   -0.566884   -1.003112
      8          7           0        0.242285   -0.748827    0.516092
      9          6           0       -0.431226   -0.315589    1.747790
     10          6           0       -1.792304   -1.024072    1.719276
     11          6           0       -2.006755   -1.447178    0.247552
     12          6           0       -0.597515   -1.400355   -0.363332
     13          8           0       -0.309927   -1.834447   -1.468540
     14          7           0       -2.937768   -0.684300   -0.579222
     15          6           0       -4.309281   -0.692830   -0.106563
     16          6           0       -2.509172    0.529634   -1.219085
     17          6           0       -2.402791    1.778998   -0.348955
     18          8           0       -2.569277    1.844772    0.851250
     19          8           0       -2.094612    2.862803   -1.099032
     20          1           0        6.077710    1.462318    0.332852
     21          1           0        6.413832   -0.186715   -0.211707
     22          1           0        5.924108    1.040351   -1.380084
     23          1           0        4.059145    1.511152    1.631250
     24          1           0        1.722654    0.904468    1.994189
     25          1           0        1.824986   -1.602742   -1.500926
     26          1           0        4.179805   -0.983171   -1.853133
     27          1           0       -0.543717    0.772706    1.754267
     28          1           0        0.170635   -0.604616    2.615069
     29          1           0       -2.583145   -0.370195    2.084806
     30          1           0       -1.760245   -1.918056    2.350183
     31          1           0       -2.351408   -2.487391    0.202737
     32          1           0       -4.485934   -0.067047    0.782415
     33          1           0       -4.968067   -0.337350   -0.907621
     34          1           0       -4.598785   -1.722117    0.134612
     35          1           0       -1.542682    0.377106   -1.711392
     36          1           0       -3.210658    0.770798   -2.029151
     37          1           0       -2.039027    3.617706   -0.482925
 ---------------------------------------------------------------------

 SCF Done:  E(UB3LYP) =  -879.837590591     A.U. after   33 cycles
 SCF Done:  E(UB3LYP) =  -879.837590591     a.u. after    1 cycles

 The electronic state is 2-A.
 Alpha  occ. eigenvalues --  -19.07573 -19.02517 -19.00002 -14.26687 -14.21989
 Alpha  occ. eigenvalues --  -10.21276 -10.17723 -10.12577 -10.11927 -10.11737
 Alpha  occ. eigenvalues --  -10.11616 -10.09754 -10.08818 -10.08448 -10.08260
 Alpha  occ. eigenvalues --  -10.08204 -10.08090 -10.07803 -10.07672  -1.01770
 Alpha  occ. eigenvalues --   -0.95264  -0.92940  -0.86886  -0.83974  -0.76755
 Alpha  occ. eigenvalues --   -0.71000  -0.67101  -0.65906  -0.65176  -0.63039
 Alpha  occ. eigenvalues --   -0.60132  -0.57127  -0.53585  -0.52505  -0.51007
 Alpha  occ. eigenvalues --   -0.48095  -0.46282  -0.42826  -0.41870  -0.40811
 Alpha  occ. eigenvalues --   -0.40309  -0.39260  -0.38296  -0.37594  -0.37212
 Alpha  occ. eigenvalues --   -0.35890  -0.35040  -0.33858  -0.33640  -0.33372
 Alpha  occ. eigenvalues --   -0.32850  -0.31877  -0.30908  -0.30516  -0.30116
 Alpha  occ. eigenvalues --   -0.29824  -0.29494  -0.28099  -0.27678  -0.26959
 Alpha  occ. eigenvalues --   -0.26593  -0.25336  -0.25190  -0.23491  -0.20261
 Alpha  occ. eigenvalues --   -0.19712  -0.16605  -0.16173  -0.12897  -0.12259
 Alpha  occ. eigenvalues --    0.04018
 Alpha virt. eigenvalues --    0.05679   0.06073   0.06338   0.06924   0.07614
 Alpha virt. eigenvalues --    0.07758   0.08426   0.08610   0.09011   0.09406
 Alpha virt. eigenvalues --    0.09568   0.10549   0.11079   0.11548   0.11747

  Beta  occ. eigenvalues --  -19.07520 -19.02497 -18.99963 -14.26702 -14.21984
  Beta  occ. eigenvalues --  -10.21270 -10.17667 -10.12545 -10.11902 -10.11735
  Beta  occ. eigenvalues --  -10.11603 -10.09728 -10.08777 -10.08437 -10.08251
  Beta  occ. eigenvalues --  -10.08187 -10.08079 -10.07788 -10.07672  -1.01699
  Beta  occ. eigenvalues --   -0.95189  -0.92879  -0.86858  -0.83957  -0.76709
  Beta  occ. eigenvalues --   -0.70948  -0.67054  -0.65865  -0.65128  -0.62981
  Beta  occ. eigenvalues --   -0.60087  -0.57064  -0.53530  -0.52433  -0.50961
  Beta  occ. eigenvalues --   -0.48030  -0.46235  -0.42772  -0.41826  -0.40758
  Beta  occ. eigenvalues --   -0.40261  -0.39218  -0.38249  -0.37559  -0.37173
  Beta  occ. eigenvalues --   -0.35839  -0.35008  -0.33791  -0.33585  -0.33339
  Beta  occ. eigenvalues --   -0.32817  -0.31811  -0.30838  -0.30471  -0.30083
  Beta  occ. eigenvalues --   -0.29786  -0.29451  -0.28056  -0.27621  -0.26918
  Beta  occ. eigenvalues --   -0.26504  -0.25293  -0.25125  -0.23438  -0.20167
  Beta  occ. eigenvalues --   -0.19652  -0.16532  -0.16127  -0.12761  -0.12230
  Beta virt. eigenvalues --    0.05868   0.06321   0.06607   0.07263   0.07451
  Beta virt. eigenvalues --    0.07679   0.08088   0.08702   0.08905   0.09141
  Beta virt. eigenvalues --    0.09547   0.09724   0.10764   0.11274   0.11658

 Mulliken charges and spin densities:
               1          2
     1  C    0.658116  -1.189802
     2  C   -0.223851   0.712578
     3  C   -0.355100  -0.031468
     4  C    0.607721  -0.636064
     5  C    0.892108  -0.973056
     6  C   -0.585313   0.445864
     7  C   -1.069868   0.758429
     8  N    0.375344  -0.039253
     9  C   -0.214206   0.008358
    10  C    0.608528  -1.293152
    11  C   -0.744651   0.436662
    12  C   -0.387819   0.279323
    13  O   -0.314330   0.017825
    14  N    0.256352  -0.080560
    15  C    0.558457  -0.858179
    16  C   -0.115765  -0.273505
    17  C    0.368079  -0.536780
    18  O   -0.256591   0.005444
    19  O   -0.142021   0.044095
    20  H   -0.152520   0.298594
    21  H    0.124557   0.022498
    22  H   -0.001156   0.148024
    23  H   -0.230237   0.385156
    24  H   -0.205019   0.357731
    25  H    0.144911   0.072824
    26  H    0.095662   0.059408
    27  H    0.044853   0.167277
    28  H    0.016156   0.165922
    29  H    0.170918   0.014182
    30  H   -0.176308   0.328731
    31  H   -0.237176   0.483188
    32  H   -0.001178   0.152579
    33  H   -0.119331   0.246383
    34  H   -0.145557   0.291235
    35  H    0.264092   0.008100
    36  H   -0.056349   0.262756
    37  H   -0.451508   0.738656
 Sum of Mulliken charges =  -1.00000   1.00000

 Dipole moment (field-independent basis, Debye):
    X=              2.2523    Y=             -2.9987    Z=              0.4156  Tot=              3.7733
 Quadrupole moment (field-independent basis, Debye-Ang):
   XX=           -185.5410   YY=           -169.8730   ZZ=           -145.7287
   XY=             -3.8405   XZ=             -2.2201   YZ=             -0.0465

 Summary of Natural Population Analysis:

                                       Natural Population
                Natural  -----------------------------------------------
    Atom  No    Charge         Core      Valence    Rydberg      Total
 -----------------------------------------------------------------------
      C    1   -0.29075      0.99964     2.28630    0.00481     3.29075
      C    2   -0.02303      0.99951     2.01348    0.01004     3.02303
      C    3   -0.09802      0.99952     2.08878    0.00972     3.09802
      C    4   -0.10990      0.99954     2.10127    0.00909     3.10990
      C    5    0.08433      0.99948     1.90472    0.01147     2.91567
      C    6   -0.10763      0.99953     2.09988    0.00822     3.10763
      C    7   -0.09491      0.99952     2.08704    0.00835     3.09491
      N    8   -0.24166      0.99960     2.73320    0.00886     3.74166
      C    9   -0.08249      0.99963     2.07313    0.00973     3.08249
      C   10   -0.20707      0.99962     2.19883    0.00863     3.20707
      C   11   -0.03527      0.99954     2.02084    0.01488     3.03527
      C   12    0.35316      0.99962     1.62407    0.02316     2.64684
      O   13   -0.31202      0.99987     3.30635    0.00580     4.31202
      N   14   -0.27114      0.99971     2.75822    0.01321     3.77114
      C   15   -0.17494      0.99964     2.16824    0.00706     3.17494
      C   16   -0.13846      0.99955     2.12611    0.01280     3.13846
      C   17    0.39987      0.99973     1.57522    0.02518     2.60013
      O   18   -0.31324      0.99987     3.30640    0.00698     4.31324
      O   19   -0.34431      0.99988     3.33749    0.00694     4.34431
      H   20    0.10191      0.00000     0.39712    0.00096     0.39809
      H   21    0.10040      0.00000     0.39851    0.00109     0.39960
      H   22    0.10286      0.00000     0.39595    0.00119     0.39714
      H   23    0.09932      0.00000     0.39964    0.00104     0.40068
      H   24    0.10517      0.00000     0.39353    0.00130     0.39483
      H   25    0.12268      0.00000     0.37614    0.00117     0.37732
      H   26    0.09671      0.00000     0.40247    0.00083     0.40329
      H   27    0.10344      0.00000     0.39485    0.00171     0.39656
      H   28    0.09621      0.00000     0.40250    0.00129     0.40379
      H   29    0.11616      0.00000     0.38281    0.00103     0.38384
      H   30    0.09973      0.00000     0.39877    0.00150     0.40027
      H   31    0.10717      0.00000     0.39128    0.00154     0.39283
      H   32    0.08833      0.00000     0.40999    0.00168     0.41167
      H   33    0.09404      0.00000     0.40485    0.00111     0.40596
      H   34    0.09587      0.00000     0.40284    0.00129     0.40413
      H   35    0.12068      0.00000     0.37782    0.00150     0.37932
      H   36    0.11150      0.00000     0.38741    0.00110     0.38850
      H   37    0.24530      0.00000     0.23698    0.01772     0.25470
 =======================================================================
   * Total *   -0.00000     18.99299    50.76301    0.24400    70.00000

 Normal termination of Gaussian 16 at Sun Dec 13 14:26:16 2020.
