 Gaussian 16, Revision A.03,

 -----------------------------------------------------------
 # opt freq B3LYP/6-31G(d) empiricaldispersion=gd3bj scf=xqc
 -----------------------------------------------------------

 -----------------------------
 CID_86708854_JID_653_neutraal
 -----------------------------
 Symbolic Z-matrix:
 Charge =  0 Multiplicity = 1

 SCF Done:  E(RB3LYP) =  -426.643104046     A.U. after   14 cycles
 SCF Done:  E(RB3LYP) =  -426.644780010     A.U. after   12 cycles
 SCF Done:  E(RB3LYP) =  -426.644909833     A.U. after   12 cycles
 SCF Done:  E(RB3LYP) =  -426.644945635     A.U. after   11 cycles
 SCF Done:  E(RB3LYP) =  -426.644970473     A.U. after   11 cycles
 SCF Done:  E(RB3LYP) =  -426.644974728     A.U. after    9 cycles
 SCF Done:  E(RB3LYP) =  -426.644976516     A.U. after    8 cycles
 SCF Done:  E(RB3LYP) =  -426.644976880     A.U. after    8 cycles
 SCF Done:  E(RB3LYP) =  -426.644977107     A.U. after    8 cycles
 SCF Done:  E(RB3LYP) =  -426.644977136     A.U. after    7 cycles
 Optimization completed.
    -- Stationary point found.

 1\1\GINC-NODE310\FOpt\RB3LYP\6-31G(d)\C9H14O1\VSC10255\08-Dec-2020\0\\
 # opt freq B3LYP/6-31G(d) empiricaldispersion=gd3bj scf=xqc\\CID_86708
 854_JID_653_neutraal\\0,1\C,1.0158504531,-0.0623999266,-0.0585318133\C
 ,0.2466377779,-0.604038928,-1.2663664315\C,1.1013800251,-1.4939013971,
 -2.2039882018\C,0.4083487864,-1.8578109101,-3.533153836\C,-0.500766488
 6,-3.0995212435,-3.4906047033\C,0.1961403788,-4.2844428875,-2.82568357
 67\O,-0.1141103217,-5.4377915063,-3.090281933\C,1.2069799597,-3.978765
 1371,-1.7929294797\C,1.6011607274,-2.7280851153,-1.5023932622\C,-1.859

 Normal termination of Gaussian 16 at Tue Dec  8 12:42:06 2020.

 --------------------------------------------------------------------
 #N Geom=AllCheck Guess=TCheck SCRF=Check GenChk RB3LYP/6-31G(d) Freq
 --------------------------------------------------------------------

 Structure from the checkpoint file:  "JID_653.chk"
 -----------------------------
 CID_86708854_JID_653_neutraal
 -----------------------------
 Charge =  0 Multiplicity = 1

 SCF Done:  E(RB3LYP) =  -426.644977136     A.U. after    1 cycles

  Exact polarizability: 119.165  -0.302  88.209  -5.074   3.127  72.507
 Approx polarizability: 181.797  -3.763 122.499 -14.715   5.380 107.699

                      1                      2                      3
                      A                      A                      A
 Frequencies --     48.5444                73.5049               126.3906
 Red. masses --      4.1846                 1.9191                 2.4725
 Frc consts  --      0.0058                 0.0061                 0.0233
 IR Inten    --      2.8613                 0.1595                 0.1928

                      4                      5                      6
                      A                      A                      A
 Frequencies --    189.3308               238.0351               241.0166
 Red. masses --      3.1926                 2.1424                 1.4833
 Frc consts  --      0.0674                 0.0715                 0.0508
 IR Inten    --      2.3816                 0.3887                 0.2730

                      7                      8                      9
                      A                      A                      A
 Frequencies --    266.4648               277.3820               336.2409
 Red. masses --      1.4210                 1.7951                 2.5793
 Frc consts  --      0.0594                 0.0814                 0.1718
 IR Inten    --      0.4538                 0.5894                 1.4834

                     10                     11                     12
                      A                      A                      A
 Frequencies --    373.2391               429.4773               482.1282
 Red. masses --      2.3156                 3.1450                 3.1887
 Frc consts  --      0.1901                 0.3418                 0.4367
 IR Inten    --      0.6561                 5.5882                 8.0564

                     13                     14                     15
                      A                      A                      A
 Frequencies --    518.7181               580.0811               695.9970
 Red. masses --      4.3500                 4.4132                 3.0831
 Frc consts  --      0.6896                 0.8749                 0.8799
 IR Inten    --      1.4814                 0.2621                 1.4779

                     16                     17                     18
                      A                      A                      A
 Frequencies --    722.0713               759.0620               796.0913
 Red. masses --      2.7624                 1.8269                 1.6680
 Frc consts  --      0.8486                 0.6202                 0.6228
 IR Inten    --      3.1804                 3.1338                 7.1294

                     19                     20                     21
                      A                      A                      A
 Frequencies --    841.6370               862.9287               895.2912
 Red. masses --      1.8892                 2.2186                 1.9304
 Frc consts  --      0.7884                 0.9734                 0.9117
 IR Inten    --     13.1227                 5.7624                10.6224

                     22                     23                     24
                      A                      A                      A
 Frequencies --    922.2034               980.7138              1028.6818
 Red. masses --      2.0969                 1.7281                 1.6359
 Frc consts  --      1.0507                 0.9792                 1.0199
 IR Inten    --      3.3089                 2.1299                 1.4598

                     25                     26                     27
                      A                      A                      A
 Frequencies --   1033.1055              1044.8997              1066.6084
 Red. masses --      1.7598                 1.6499                 1.6704
 Frc consts  --      1.1066                 1.0613                 1.1197
 IR Inten    --      2.0038                10.3812                 8.9074

                     28                     29                     30
                      A                      A                      A
 Frequencies --   1074.3990              1118.2195              1151.4315
 Red. masses --      2.0473                 1.5525                 1.6469
 Frc consts  --      1.3924                 1.1437                 1.2864
 IR Inten    --      1.1567                 8.6029                 6.5181

                     31                     32                     33
                      A                      A                      A
 Frequencies --   1156.4469              1182.8842              1264.1097
 Red. masses --      1.9348                 1.4083                 1.4450
 Frc consts  --      1.5245                 1.1610                 1.3605
 IR Inten    --      1.1347                 6.0243                18.8858

                     34                     35                     36
                      A                      A                      A
 Frequencies --   1283.7125              1297.2570              1316.3041
 Red. masses --      1.7065                 1.3474                 1.3145
 Frc consts  --      1.6569                 1.3360                 1.3419
 IR Inten    --     23.1763                 0.4267                 8.4504

                     37                     38                     39
                      A                      A                      A
 Frequencies --   1355.2230              1362.0043              1379.6614
 Red. masses --      1.4947                 1.3868                 1.3506
 Frc consts  --      1.6175                 1.5157                 1.5147
 IR Inten    --      2.5941                 2.2528                 1.1791

                     40                     41                     42
                      A                      A                      A
 Frequencies --   1399.6046              1409.6277              1434.3790
 Red. masses --      1.4498                 1.4437                 1.5687
 Frc consts  --      1.6732                 1.6902                 1.9016
 IR Inten    --      7.8677                 4.7643                18.1953

                     43                     44                     45
                      A                      A                      A
 Frequencies --   1435.2431              1444.1296              1513.7217
 Red. masses --      1.3371                 1.2527                 1.0670
 Frc consts  --      1.6228                 1.5392                 1.4405
 IR Inten    --      2.5086                 1.5985                 2.8092

                     46                     47                     48
                      A                      A                      A
 Frequencies --   1517.6219              1526.4104              1530.8042
 Red. masses --      1.0807                 1.0520                 1.0481
 Frc consts  --      1.4665                 1.4442                 1.4471
 IR Inten    --      3.6572                 5.9666                 3.5631

                     49                     50                     51
                      A                      A                      A
 Frequencies --   1538.1706              1540.1813              1695.6478
 Red. masses --      1.0601                 1.0548                 6.7931
 Frc consts  --      1.4778                 1.4742                11.5077
 IR Inten    --      2.2962                 7.9785                15.5101

                     52                     53                     54
                      A                      A                      A
 Frequencies --   1775.2759              2996.8250              3039.8800
 Red. masses --     11.0758                 1.0819                 1.0629
 Frc consts  --     20.5664                 5.7248                 5.7868
 IR Inten    --    226.4310                20.4041                25.1036

                     55                     56                     57
                      A                      A                      A
 Frequencies --   3047.0779              3047.7169              3057.3656
 Red. masses --      1.0383                 1.0639                 1.0390
 Frc consts  --      5.6800                 5.8225                 5.7220
 IR Inten    --     25.2077                25.6501                22.8453

                     58                     59                     60
                      A                      A                      A
 Frequencies --   3065.2393              3077.7316              3096.9170
 Red. masses --      1.0829                 1.1033                 1.0962
 Frc consts  --      5.9944                 6.1572                 6.1944
 IR Inten    --     23.6528                37.6550                 6.2232

                     61                     62                     63
                      A                      A                      A
 Frequencies --   3117.4625              3121.0214              3128.2981
 Red. masses --      1.1006                 1.1025                 1.1008
 Frc consts  --      6.3018                 6.3275                 6.3473
 IR Inten    --     41.7021                36.6410                39.9686

                     64                     65                     66
                      A                      A                      A
 Frequencies --   3139.9045              3164.4108              3199.5921
 Red. masses --      1.1014                 1.0869                 1.0949
 Frc consts  --      6.3976                 6.4124                 6.6040
 IR Inten    --     23.4221                15.0851                15.5685

 - Thermochemistry -
 -------------------
 Temperature   298.150 Kelvin.  Pressure   1.00000 Atm.
 Atom     1 has atomic number  6 and mass  12.00000

 Molecular mass:   138.10447 amu.
 Principal axes and moments of inertia in atomic units:
                           1         2         3
     Eigenvalues --   787.333171951.884232278.79363
           X            0.99966   0.02515   0.00733
           Y           -0.02509   0.99966  -0.00745
           Z           -0.00751   0.00726   0.99995
 This molecule is an asymmetric top.
 Rotational symmetry number  1.
 Warning -- assumption of classical behavior for rotation
           may cause significant error
 Rotational temperatures (Kelvin)      0.11001     0.04437     0.03801
 Rotational constants (GHZ):           2.29222     0.92461     0.79197
 Zero-point vibrational energy     561238.6 (Joules/Mol)
                                  134.13923 (Kcal/Mol)
 Warning -- explicit consideration of  14 degrees of freedom as
           vibrations may cause significant error
 Vibrational temperatures:     69.84   105.76   181.85   272.40   342.48
          (Kelvin)            346.77   383.38   399.09   483.78   537.01
                              617.92   693.68   746.32   834.61  1001.38
                             1038.90  1092.12  1145.40  1210.93  1241.56
                             1288.12  1326.85  1411.03  1480.04  1486.41
                             1503.38  1534.61  1545.82  1608.87  1656.65
                             1663.87  1701.91  1818.77  1846.98  1866.46
                             1893.87  1949.86  1959.62  1985.03  2013.72
                             2028.14  2063.75  2064.99  2077.78  2177.91
                             2183.52  2196.16  2202.49  2213.08  2215.98
                             2439.66  2554.23  4311.76  4373.71  4384.07
                             4384.98  4398.87  4410.20  4428.17  4455.77
                             4485.33  4490.45  4500.92  4517.62  4552.88
                             4603.50

 Zero-point correction=                           0.213764 (Hartree/Particle)
 Thermal correction to Energy=                    0.224047
 Thermal correction to Enthalpy=                  0.224991
 Thermal correction to Gibbs Free Energy=         0.178002
 Sum of electronic and zero-point Energies=           -426.431213
 Sum of electronic and thermal Energies=              -426.420930
 Sum of electronic and thermal Enthalpies=            -426.419986
 Sum of electronic and thermal Free Energies=         -426.466975

                     E (Thermal)             CV                S
                      KCal/Mol        Cal/Mol-Kelvin    Cal/Mol-Kelvin
 Total                  140.592             38.840             98.898
 Electronic               0.000              0.000              0.000
 Translational            0.889              2.981             40.680
 Rotational               0.889              2.981             29.639
 Vibrational            138.814             32.878             28.578
 Vibration     1          0.595              1.978              4.876
 Vibration     2          0.599              1.966              4.057
 Vibration     3          0.611              1.927              3.000
 Vibration     4          0.633              1.855              2.234
 Vibration     5          0.656              1.782              1.818
 Vibration     6          0.658              1.778              1.795
 Vibration     7          0.672              1.735              1.619
 Vibration     8          0.678              1.715              1.550
 Vibration     9          0.717              1.603              1.230
 Vibration    10          0.745              1.527              1.066
 Vibration    11          0.791              1.406              0.860
 Vibration    12          0.838              1.290              0.704
 Vibration    13          0.874              1.209              0.613
 Vibration    14          0.937              1.074              0.485

 Optimization completed.
    -- Stationary point found.

 1\1\GINC-NODE310\Freq\RB3LYP\6-31G(d)\C9H14O1\VSC10255\08-Dec-2020\0\\
 #N Geom=AllCheck Guess=TCheck SCRF=Check GenChk RB3LYP/6-31G(d) Freq\\
 CID_86708854_JID_653_neutraal\\0,1\C,1.0158504531,-0.0623999266,-0.058
 5318133\C,0.2466377779,-0.604038928,-1.2663664315\C,1.1013800251,-1.49
 39013971,-2.2039882018\C,0.4083487864,-1.8578109101,-3.533153836\C,-0.
 5007664886,-3.0995212435,-3.4906047033\C,0.1961403788,-4.2844428875,-2
 .8256835767\O,-0.1141103217,-5.4377915063,-3.090281933\C,1.2069799597,
 -3.9787651371,-1.7929294797\C,1.6011607274,-2.7280851153,-1.5023932622

 Normal termination of Gaussian 16 at Tue Dec  8 12:51:39 2020.

 ----------------------------------------------------------------------
 # B3LYP/6-311++G(d,p) empiricaldispersion=gd3bj scf=xqc pop=npa geom=c
 heck
 ----------------------------------------------------------------------

 -------------------------------------
 CID_86708854_JID_653_Energie_neutraal
 -------------------------------------
 Structure from the checkpoint file:  "JID_653.chk"
 Charge =  0 Multiplicity = 1

 SCF Done:  E(RB3LYP) =  -426.765472339     A.U. after   14 cycles
 Normal termination of Gaussian 16 at Tue Dec  8 13:04:04 2020.

 ----------------------------------------------------------------------
 # B3LYP/6-311++G(d,p) empiricaldispersion=gd3bj scf=xqc pop=npa geom=c
 heck
 ----------------------------------------------------------------------

 -----------------------------------
 CID_86708854_JID_653_Energie_kation
 -----------------------------------
 Structure from the checkpoint file:  "JID_653.chk"
 Charge =  1 Multiplicity = 2

 SCF Done:  E(UB3LYP) =  -426.439801764     A.U. after   22 cycles
 Normal termination of Gaussian 16 at Tue Dec  8 13:08:44 2020.
 Gaussian 16:  ES64L-G16RevA.03 25-Dec-2016

 ----------------------------------
 CID_86708854_JID_653_Energie_anion
 ----------------------------------
 Structure from the checkpoint file:  "JID_653.chk"
 Charge = -1 Multiplicity = 2

                         Standard orientation:
 ---------------------------------------------------------------------
 Center     Atomic      Atomic             Coordinates (Angstroms)
 Number     Number       Type             X           Y           Z
 ---------------------------------------------------------------------
      1          6           0       -3.311053   -0.231890   -0.579664
      2          6           0       -2.066266    0.591195   -0.237667
      3          6           0       -1.095999   -0.119539    0.739581
      4          6           0        0.040113    0.780804    1.266871
      5          6           0        1.292965    0.860631    0.375727
      6          6           0        1.767442   -0.525976   -0.053262
      7          8           0        2.937666   -0.740171   -0.338179
      8          6           0        0.740021   -1.579104   -0.184198
      9          6           0       -0.546079   -1.392896    0.155308
     10          6           0        1.138397    1.730363   -0.886940
     11          1           0       -3.057243   -1.140763   -1.135970
     12          1           0       -4.003593    0.348396   -1.198592
     13          1           0       -3.848135   -0.533919    0.328003
     14          1           0       -1.538859    0.854800   -1.159887
     15          1           0       -2.372481    1.536980    0.227858
     16          1           0       -1.711887   -0.407219    1.606115
     17          1           0        0.353298    0.379935    2.239220
     18          1           0       -0.344018    1.790923    1.456703
     19          1           0        2.109092    1.291649    0.967136
     20          1           0        1.089689   -2.524976   -0.589794
     21          1           0       -1.252168   -2.208038    0.004543
     22          1           0        0.759874    2.724923   -0.625665
     23          1           0        2.108732    1.843802   -1.379263
     24          1           0        0.449133    1.283352   -1.609505
 ---------------------------------------------------------------------

 SCF Done:  E(UB3LYP) =  -426.765563204     A.U. after   30 cycles

 The electronic state is 2-A.
 Alpha  occ. eigenvalues --  -18.92312 -10.06675 -10.04435 -10.03972 -10.03926
 Alpha  occ. eigenvalues --  -10.03889 -10.03737 -10.03727 -10.01362 -10.00562
 Alpha  occ. eigenvalues --   -0.86210  -0.70231  -0.64858  -0.61873  -0.58283
 Alpha  occ. eigenvalues --   -0.53712  -0.48627  -0.46049  -0.42876  -0.36558
 Alpha  occ. eigenvalues --   -0.33569  -0.32474  -0.31309  -0.30337  -0.29088
 Alpha  occ. eigenvalues --   -0.28639  -0.26863  -0.25709  -0.24515  -0.24030
 Alpha  occ. eigenvalues --   -0.23278  -0.22157  -0.21305  -0.19018  -0.18696
 Alpha  occ. eigenvalues --   -0.17760  -0.11814  -0.08049   0.05203
 Alpha virt. eigenvalues --    0.07786   0.09234   0.09652   0.10246   0.11617
 Alpha virt. eigenvalues --    0.11764   0.12181   0.12711   0.13660   0.14295
 Alpha virt. eigenvalues --    0.14525   0.15053   0.15913   0.17325   0.18011

  Beta  occ. eigenvalues --  -18.91864 -10.06418 -10.04466 -10.03923 -10.03917
  Beta  occ. eigenvalues --  -10.03901 -10.03707 -10.03693 -10.00954 -10.00521
  Beta  occ. eigenvalues --   -0.85405  -0.69998  -0.64739  -0.61514  -0.58101
  Beta  occ. eigenvalues --   -0.53493  -0.48265  -0.45844  -0.42355  -0.36448
  Beta  occ. eigenvalues --   -0.33437  -0.32274  -0.31025  -0.30202  -0.28877
  Beta  occ. eigenvalues --   -0.28496  -0.26512  -0.25591  -0.24191  -0.23918
  Beta  occ. eigenvalues --   -0.23085  -0.21774  -0.20473  -0.18661  -0.18216
  Beta  occ. eigenvalues --   -0.17478  -0.09991  -0.07668
  Beta virt. eigenvalues --    0.08120   0.09244   0.09840   0.10341   0.11339
  Beta virt. eigenvalues --    0.11865   0.12095   0.12215   0.12819   0.13761
  Beta virt. eigenvalues --    0.14452   0.14624   0.15149   0.15901   0.17384

 Mulliken charges and spin densities:
               1          2
     1  C    0.871710  -1.571219
     2  C   -0.647510   0.391170
     3  C    0.494503   0.045653
     4  C   -0.358463  -0.108150
     5  C    0.516219  -0.108431
     6  C   -0.575159   0.217438
     7  O   -0.397286   0.148092
     8  C   -0.061038   0.170430
     9  C   -0.349071   0.061772
    10  C   -0.662236   0.051105
    11  H   -0.108245   0.257530
    12  H   -0.388601   0.511944
    13  H   -0.227128   0.356729
    14  H    0.144553  -0.043317
    15  H   -0.264826   0.389797
    16  H    0.004820   0.190746
    17  H    0.107214   0.004140
    18  H    0.042121   0.087274
    19  H    0.180023   0.005371
    20  H    0.109817   0.017586
    21  H    0.160799  -0.062748
    22  H    0.113812  -0.003428
    23  H    0.154854  -0.004322
    24  H    0.139118  -0.005162
 Sum of Mulliken charges =  -1.00000   1.00000

 Dipole moment (field-independent basis, Debye):
    X=              0.1966    Y=              1.5665    Z=              0.6819  Tot=              1.7198
 Quadrupole moment (field-independent basis, Debye-Ang):
   XX=           -122.9604   YY=            -79.6337   ZZ=            -76.9108
   XY=              9.5750   XZ=              2.1689   YZ=             -0.7734

 Summary of Natural Population Analysis:

                                       Natural Population
                Natural  -----------------------------------------------
    Atom  No    Charge         Core      Valence    Rydberg      Total
 -----------------------------------------------------------------------
      C    1   -0.28566      0.99967     2.28038    0.00560     3.28566
      C    2   -0.17972      0.99962     2.17097    0.00914     3.17972
      C    3   -0.13224      0.99958     2.12140    0.01127     3.13224
      C    4   -0.18043      0.99961     2.17041    0.01041     3.18043
      C    5   -0.14962      0.99957     2.13740    0.01265     3.14962
      C    6    0.29462      0.99960     1.68345    0.02233     2.70538
      O    7   -0.26999      0.99988     3.26276    0.00735     4.26999
      C    8   -0.15254      0.99949     2.14262    0.01043     3.15254
      C    9    0.00962      0.99954     1.97992    0.01091     2.99038
      C   10   -0.27668      0.99965     2.27282    0.00421     3.27668
      H   11    0.09777      0.00000     0.40120    0.00103     0.40223
      H   12    0.09591      0.00000     0.40307    0.00102     0.40409
      H   13    0.09431      0.00000     0.40419    0.00150     0.40569
      H   14    0.09338      0.00000     0.40529    0.00133     0.40662
      H   15    0.09228      0.00000     0.40593    0.00179     0.40772
      H   16    0.09803      0.00000     0.39999    0.00197     0.40197
      H   17    0.09706      0.00000     0.40205    0.00089     0.40294
      H   18    0.09187      0.00000     0.40703    0.00110     0.40813
      H   19    0.09797      0.00000     0.40040    0.00163     0.40203
      H   20    0.09331      0.00000     0.40465    0.00204     0.40669
      H   21    0.08397      0.00000     0.41490    0.00113     0.41603
      H   22    0.08947      0.00000     0.40958    0.00095     0.41053
      H   23    0.10058      0.00000     0.39849    0.00093     0.39942
      H   24    0.09672      0.00000     0.40208    0.00120     0.40328
 =======================================================================
   * Total *    0.00000      9.99621    27.88099    0.12280    38.00000

 Normal termination of Gaussian 16 at Tue Dec  8 13:17:18 2020.
