 Gaussian 16, Revision A.03,

 -----------------------------------------------------------
 # opt freq B3LYP/6-31G(d) empiricaldispersion=gd3bj scf=xqc
 -----------------------------------------------------------

 -------------------------------
 CID_114183416_JID_7104_neutraal
 -------------------------------
 Symbolic Z-matrix:
 Charge =  0 Multiplicity = 1

 SCF Done:  E(RB3LYP) =  -815.532409329     A.U. after   15 cycles
 SCF Done:  E(RB3LYP) =  -815.539196982     A.U. after   12 cycles
 SCF Done:  E(RB3LYP) =  -815.540245676     A.U. after   12 cycles
 SCF Done:  E(RB3LYP) =  -815.540727956     A.U. after   11 cycles
 SCF Done:  E(RB3LYP) =  -815.540951450     A.U. after   12 cycles
 SCF Done:  E(RB3LYP) =  -815.541056539     A.U. after   11 cycles
 SCF Done:  E(RB3LYP) =  -815.541111938     A.U. after   12 cycles
 SCF Done:  E(RB3LYP) =  -815.541139303     A.U. after   10 cycles
 SCF Done:  E(RB3LYP) =  -815.541152129     A.U. after   10 cycles
 SCF Done:  E(RB3LYP) =  -815.541161706     A.U. after    9 cycles
 SCF Done:  E(RB3LYP) =  -815.541172368     A.U. after    9 cycles
 SCF Done:  E(RB3LYP) =  -815.541175114     A.U. after    9 cycles
 SCF Done:  E(RB3LYP) =  -815.541176441     A.U. after    9 cycles
 SCF Done:  E(RB3LYP) =  -815.541177010     A.U. after    8 cycles
 SCF Done:  E(RB3LYP) =  -815.541177316     A.U. after    8 cycles
 SCF Done:  E(RB3LYP) =  -815.541177451     A.U. after    7 cycles
 Optimization completed.
    -- Stationary point found.
 Normal termination of Gaussian 16 at Sun Dec 13 20:09:43 2020.

 --------------------------------------------------------------------
 #N Geom=AllCheck Guess=TCheck SCRF=Check GenChk RB3LYP/6-31G(d) Freq
 --------------------------------------------------------------------

 Structure from the checkpoint file:  "JID_7104.chk"
 -------------------------------
 CID_114183416_JID_7104_neutraal
 -------------------------------
 Charge =  0 Multiplicity = 1

 SCF Done:  E(RB3LYP) =  -815.541177451     A.U. after    1 cycles

  Exact polarizability: 166.829   4.195 126.884   5.464   6.323 117.422
 Approx polarizability: 222.488   1.559 187.525  13.905  15.694 185.442

                      1                      2                      3
                      A                      A                      A
 Frequencies --     16.3999                23.4642                38.6628
 Red. masses --      5.8049                 4.3332                 6.8947
 Frc consts  --      0.0009                 0.0014                 0.0061
 IR Inten    --      0.2875                 1.9627                 1.7585

                      4                      5                      6
                      A                      A                      A
 Frequencies --     45.1685                88.5222               120.7136
 Red. masses --      6.6508                 5.1276                 4.0519
 Frc consts  --      0.0080                 0.0237                 0.0348
 IR Inten    --      0.8329                 5.2240                 1.5865

                      7                      8                      9
                      A                      A                      A
 Frequencies --    128.2587               163.0732               177.2450
 Red. masses --      4.5254                 3.1073                 3.3501
 Frc consts  --      0.0439                 0.0487                 0.0620
 IR Inten    --      2.0239                 1.1960                 2.9727

                     10                     11                     12
                      A                      A                      A
 Frequencies --    227.9899               260.5075               308.9605
 Red. masses --      2.7283                 4.1949                 2.8411
 Frc consts  --      0.0836                 0.1677                 0.1598
 IR Inten    --      3.0924                 3.9649                 5.6546

                     13                     14                     15
                      A                      A                      A
 Frequencies --    338.0378               343.3600               353.4651
 Red. masses --      4.0745                 2.4941                 2.1893
 Frc consts  --      0.2743                 0.1732                 0.1612
 IR Inten    --      8.2917                 9.5317                 4.9309

                     16                     17                     18
                      A                      A                      A
 Frequencies --    421.7154               430.9596               466.7279
 Red. masses --      1.2156                 2.3263                 2.5504
 Frc consts  --      0.1274                 0.2546                 0.3273
 IR Inten    --     37.2323                 2.3319                 3.0435

                     19                     20                     21
                      A                      A                      A
 Frequencies --    472.8066               499.0640               510.1118
 Red. masses --      1.9290                 3.1644                 2.9082
 Frc consts  --      0.2541                 0.4644                 0.4459
 IR Inten    --      3.8070                 8.1678                 1.1075

                     22                     23                     24
                      A                      A                      A
 Frequencies --    562.1349               610.7275               625.7042
 Red. masses --      3.0080                 2.0424                 4.1905
 Frc consts  --      0.5600                 0.4488                 0.9666
 IR Inten    --      3.8083               108.0551                 3.6261

                     25                     26                     27
                      A                      A                      A
 Frequencies --    645.1584               653.6406               734.8335
 Red. masses --      1.9737                 3.6506                 1.6826
 Frc consts  --      0.4840                 0.9189                 0.5353
 IR Inten    --     80.8297                 9.0584                80.4708

                     28                     29                     30
                      A                      A                      A
 Frequencies --    755.4355               765.2738               787.2072
 Red. masses --      2.9054                 4.1720                 4.3895
 Frc consts  --      0.9769                 1.4396                 1.6027
 IR Inten    --      9.9470                 7.4479               107.1192

                     31                     32                     33
                      A                      A                      A
 Frequencies --    819.4653               844.4582               855.5124
 Red. masses --      1.6671                 1.8969                 2.4278
 Frc consts  --      0.6596                 0.7970                 1.0469
 IR Inten    --      6.3064                11.5999                 0.7553

                     34                     35                     36
                      A                      A                      A
 Frequencies --    886.2920               892.0953               940.3946
 Red. masses --      6.2631                 1.4801                 2.4933
 Frc consts  --      2.8986                 0.6940                 1.2991
 IR Inten    --     38.6799                 5.4474                15.5009

                     37                     38                     39
                      A                      A                      A
 Frequencies --    954.1279               977.9099               985.0918
 Red. masses --      1.7726                 6.4886                 2.2147
 Frc consts  --      0.9508                 3.6559                 1.2662
 IR Inten    --      2.8366                 4.0260                 9.7892

                     40                     41                     42
                      A                      A                      A
 Frequencies --   1003.6846              1006.9052              1023.6031
 Red. masses --      3.5871                 1.9522                 2.6855
 Frc consts  --      2.1291                 1.1662                 1.6579
 IR Inten    --      6.7561                 6.3716                 6.6989

                     43                     44                     45
                      A                      A                      A
 Frequencies --   1062.0480              1094.8085              1102.2908
 Red. masses --      2.1944                 2.5169                 2.5157
 Frc consts  --      1.4583                 1.7774                 1.8010
 IR Inten    --     19.8065                 2.4627                 4.5577

                     46                     47                     48
                      A                      A                      A
 Frequencies --   1123.9333              1131.2034              1160.0873
 Red. masses --      2.4846                 1.6726                 2.7357
 Frc consts  --      1.8492                 1.2610                 2.1692
 IR Inten    --      9.8303                96.4089                61.8030

                     49                     50                     51
                      A                      A                      A
 Frequencies --   1161.2004              1182.5513              1194.3280
 Red. masses --      2.4372                 1.8465                 1.3014
 Frc consts  --      1.9362                 1.5214                 1.0937
 IR Inten    --     19.7859                 2.7135                 1.3827

                     52                     53                     54
                      A                      A                      A
 Frequencies --   1232.9107              1244.5408              1263.1935
 Red. masses --      1.9415                 1.5665                 1.3445
 Frc consts  --      1.7388                 1.4295                 1.2640
 IR Inten    --      9.1812                48.0392                35.3446

                     55                     56                     57
                      A                      A                      A
 Frequencies --   1301.2647              1305.3046              1307.7262
 Red. masses --      1.9760                 1.7155                 1.3460
 Frc consts  --      1.9714                 1.7221                 1.3563
 IR Inten    --     16.6492                 1.0342                 0.3995

                     58                     59                     60
                      A                      A                      A
 Frequencies --   1322.8586              1346.0265              1351.8167
 Red. masses --      1.5844                 1.3274                 1.6775
 Frc consts  --      1.6336                 1.4169                 1.8061
 IR Inten    --    118.9763                 2.3391                30.7564

                     61                     62                     63
                      A                      A                      A
 Frequencies --   1366.3867              1391.2513              1394.8619
 Red. masses --      1.5892                 1.3379                 1.5889
 Frc consts  --      1.7482                 1.5258                 1.8215
 IR Inten    --     36.6667                10.0307                11.5739

                     64                     65                     66
                      A                      A                      A
 Frequencies --   1396.4878              1406.5814              1426.2454
 Red. masses --      1.3958                 1.4372                 1.4657
 Frc consts  --      1.6038                 1.6754                 1.7567
 IR Inten    --     14.4870                43.8409                 7.1974

                     67                     68                     69
                      A                      A                      A
 Frequencies --   1428.8527              1479.9661              1493.8145
 Red. masses --      1.4460                 3.1780                 1.1441
 Frc consts  --      1.7394                 4.1012                 1.5042
 IR Inten    --     33.4595               284.1819                 7.0984

                     70                     71                     72
                      A                      A                      A
 Frequencies --   1506.7571              1514.3029              1518.9657
 Red. masses --      1.1172                 1.1308                 1.1007
 Frc consts  --      1.4944                 1.5278                 1.4963
 IR Inten    --      0.9388                 6.5918                 4.1277

                     73                     74                     75
                      A                      A                      A
 Frequencies --   1527.1579              1532.6959              1540.3394
 Red. masses --      1.0865                 4.2421                 1.1159
 Frc consts  --      1.4930                 5.8714                 1.5599
 IR Inten    --      5.9797                 3.3431                 5.7731

                     76                     77                     78
                      A                      A                      A
 Frequencies --   1554.5172              1612.9240              1658.8280
 Red. masses --      1.2480                 6.5188                 1.2063
 Frc consts  --      1.7769                 9.9918                 1.9557
 IR Inten    --     91.4320                73.4230               150.6812

                     79                     80                     81
                      A                      A                      A
 Frequencies --   1791.2717              2978.7316              2990.2284
 Red. masses --      6.8958                 1.0752                 1.0749
 Frc consts  --     13.0363                 5.6209                 5.6628
 IR Inten    --    364.8552                35.6340                40.5353

                     82                     83                     84
                      A                      A                      A
 Frequencies --   3003.5820              3032.6188              3039.4395
 Red. masses --      1.0822                 1.0662                 1.0655
 Frc consts  --      5.7525                 5.7773                 5.7996
 IR Inten    --     39.7774                53.6897                26.1177

                     85                     86                     87
                      A                      A                      A
 Frequencies --   3047.4022              3078.7616              3089.5553
 Red. masses --      1.0605                 1.0705                 1.0921
 Frc consts  --      5.8027                 5.9782                 6.1417
 IR Inten    --     45.3119                 9.0708                16.3509

                     88                     89                     90
                      A                      A                      A
 Frequencies --   3095.7391              3105.1299              3131.9550
 Red. masses --      1.1002                 1.0981                 1.1027
 Frc consts  --      6.2125                 6.2378                 6.3730
 IR Inten    --     58.5873                35.0375                13.9970

                     91                     92                     93
                      A                      A                      A
 Frequencies --   3148.7885              3167.5694              3288.8677
 Red. masses --      1.0879                 1.0893                 1.0999
 Frc consts  --      6.3552                 6.4394                 7.0097
 IR Inten    --     22.1975                 3.4602                 0.8030

                     94                     95                     96
                      A                      A                      A
 Frequencies --   3510.7550              3555.4526              3661.7330
 Red. masses --      1.0735                 1.0480                 1.0982
 Frc consts  --      7.7955                 7.8058                 8.6757
 IR Inten    --     17.0139                16.7499                19.5794

 - Thermochemistry -
 -------------------
 Temperature   298.150 Kelvin.  Pressure   1.00000 Atm.
 Atom     1 has atomic number  6 and mass  12.00000

 Molecular mass:   239.13822 amu.
 Principal axes and moments of inertia in atomic units:
                           1         2         3
     Eigenvalues --  1813.696359489.37246**********
           X            0.99998   0.00577  -0.00130
           Y           -0.00578   0.99997  -0.00445
           Z            0.00127   0.00446   0.99999
 This molecule is an asymmetric top.
 Rotational symmetry number  1.
 Warning -- assumption of classical behavior for rotation
           may cause significant error
 Rotational temperatures (Kelvin)      0.04776     0.00913     0.00862
 Rotational constants (GHZ):           0.99506     0.19019     0.17969
 Zero-point vibrational energy     760355.3 (Joules/Mol)
                                  181.72928 (Kcal/Mol)
 Warning -- explicit consideration of  23 degrees of freedom as
           vibrations may cause significant error
 Vibrational temperatures:     23.60    33.76    55.63    64.99   127.36
          (Kelvin)            173.68   184.54   234.63   255.02   328.03
                              374.81   444.53   486.36   494.02   508.56
                              606.75   620.05   671.52   680.26   718.04
                              733.94   808.79   878.70   900.25   928.24
                              940.44  1057.26  1086.90  1101.06  1132.62
                             1179.03  1214.99  1230.89  1275.18  1283.53
                             1353.02  1372.78  1406.99  1417.33  1444.08
                             1448.71  1472.74  1528.05  1575.19  1585.95
                             1617.09  1627.55  1669.11  1670.71  1701.43
                             1718.37  1773.88  1790.62  1817.45  1872.23
                             1878.04  1881.53  1903.30  1936.63  1944.96
                             1965.93  2001.70  2006.90  2009.23  2023.76
                             2052.05  2055.80  2129.34  2149.27  2167.89
                             2178.74  2185.45  2197.24  2205.21  2216.20
                             2236.60  2320.64  2386.68  2577.24  4285.73
                             4302.27  4321.48  4363.26  4373.08  4384.53
                             4429.65  4445.18  4454.08  4467.59  4506.18
                             4530.40  4557.43  4731.95  5051.19  5115.50
                             5268.42

 Zero-point correction=                           0.289604 (Hartree/Particle)
 Thermal correction to Energy=                    0.305405
 Thermal correction to Enthalpy=                  0.306349
 Thermal correction to Gibbs Free Energy=         0.243285
 Sum of electronic and zero-point Energies=           -815.251573
 Sum of electronic and thermal Energies=              -815.235772
 Sum of electronic and thermal Enthalpies=            -815.234828
 Sum of electronic and thermal Free Energies=         -815.297892

                     E (Thermal)             CV                S
                      KCal/Mol        Cal/Mol-Kelvin    Cal/Mol-Kelvin
 Total                  191.645             59.882            132.730
 Electronic               0.000              0.000              0.000
 Translational            0.889              2.981             42.317
 Rotational               0.889              2.981             33.513
 Vibrational            189.867             53.921             56.900
 Vibration     1          0.593              1.986              7.028
 Vibration     2          0.593              1.985              6.317
 Vibration     3          0.594              1.981              5.326
 Vibration     4          0.595              1.979              5.018
 Vibration     5          0.601              1.957              3.692
 Vibration     6          0.609              1.932              3.089
 Vibration     7          0.611              1.925              2.972
 Vibration     8          0.623              1.888              2.514
 Vibration     9          0.628              1.870              2.357
 Vibration    10          0.651              1.798              1.895
 Vibration    11          0.669              1.745              1.658
 Vibration    12          0.698              1.657              1.368
 Vibration    13          0.718              1.600              1.221
 Vibration    14          0.722              1.589              1.196
 Vibration    15          0.730              1.568              1.151
 Vibration    16          0.784              1.423              0.886
 Vibration    17          0.792              1.403              0.856
 Vibration    18          0.824              1.324              0.747
 Vibration    19          0.830              1.310              0.730
 Vibration    20          0.855              1.252              0.660
 Vibration    21          0.865              1.228              0.633
 Vibration    22          0.918              1.113              0.520
 Vibration    23          0.970              1.009              0.432

 Optimization completed.
    -- Stationary point found.
 Normal termination of Gaussian 16 at Sun Dec 13 20:21:28 2020.

 ----------------------------------------------------------------------
 # B3LYP/6-311++G(d,p) empiricaldispersion=gd3bj scf=xqc pop=npa geom=c
 heck
 ----------------------------------------------------------------------

 ---------------------------------------
 CID_114183416_JID_7104_Energie_neutraal
 ---------------------------------------
 Structure from the checkpoint file:  "JID_7104.chk"
 Charge =  0 Multiplicity = 1

 SCF Done:  E(RB3LYP) =  -815.778074044     A.U. after   16 cycles
 Normal termination of Gaussian 16 at Sun Dec 13 20:27:40 2020.

 ----------------------------------------------------------------------
 # B3LYP/6-311++G(d,p) empiricaldispersion=gd3bj scf=xqc pop=npa geom=c
 heck
 ----------------------------------------------------------------------

 -------------------------------------
 CID_114183416_JID_7104_Energie_kation
 -------------------------------------
 Structure from the checkpoint file:  "JID_7104.chk"
 Charge =  1 Multiplicity = 2

 SCF Done:  E(UB3LYP) =  -815.482664007     A.U. after   26 cycles
 Normal termination of Gaussian 16 at Sun Dec 13 20:42:39 2020.
 Gaussian 16:  ES64L-G16RevA.03 25-Dec-2016

 ----------------------------------------------------------------------
 # B3LYP/6-311++G(d,p) empiricaldispersion=gd3bj scf=xqc pop=npa geom=c
 heck
 ----------------------------------------------------------------------

 ------------------------------------
 CID_114183416_JID_7104_Energie_anion
 ------------------------------------
 Structure from the checkpoint file:  "JID_7104.chk"
 Charge = -1 Multiplicity = 2

                         Standard orientation:
 ---------------------------------------------------------------------
 Center     Atomic      Atomic             Coordinates (Angstroms)
 Number     Number       Type             X           Y           Z
 ---------------------------------------------------------------------
      1          6           0       -1.322799    1.075456   -1.370417
      2          6           0       -2.798073    0.960243   -0.985369
      3          7           0       -2.967383   -0.046602    0.057808
      4          6           0       -2.197855    0.227226    1.265920
      5          6           0       -0.701782    0.317834    0.946603
      6          6           0       -0.423643    1.360749   -0.159454
      7          7           0        0.955341    1.462115   -0.626662
      8          6           0        1.973946    1.905250    0.310165
      9          6           0        2.650539    0.827206    1.204146
     10          6           0        3.358089   -0.213690    0.402915
     11          7           0        4.656470   -0.384141    0.450237
     12          8           0        4.885358   -1.432204   -0.470647
     13          6           0        3.689478   -1.759995   -0.963305
     14          7           0        2.705177   -1.065695   -0.480859
     15          6           0       -4.076916   -0.865497    0.000743
     16          8           0       -4.915805   -0.795931   -0.890694
     17          7           0       -4.202333   -1.789290    1.043846
     18          1           0       -1.185163    1.867792   -2.113572
     19          1           0       -1.004715    0.131142   -1.834022
     20          1           0       -3.169064    1.933758   -0.623771
     21          1           0       -3.417009    0.667946   -1.832750
     22          1           0       -2.391873   -0.536069    2.019527
     23          1           0       -2.535143    1.184678    1.699134
     24          1           0       -0.331669   -0.661448    0.616063
     25          1           0       -0.167782    0.583995    1.865984
     26          1           0       -0.698294    2.349391    0.240676
     27          1           0        1.236922    0.593741   -1.076633
     28          1           0        2.773308    2.406940   -0.251911
     29          1           0        1.530994    2.663424    0.966448
     30          1           0        3.382818    1.308504    1.860585
     31          1           0        1.906936    0.332867    1.835538
     32          1           0        3.654788   -2.553647   -1.697227
     33          1           0       -3.350873   -2.230033    1.369382
     34          1           0       -4.927422   -2.461312    0.825002
 ---------------------------------------------------------------------

 SCF Done:  E(UB3LYP) =  -815.775483681     A.U. after   32 cycles

 The electronic state is 2-A.
 Alpha  occ. eigenvalues --  -19.10002 -18.98411 -14.24573 -14.23905 -14.22440
 Alpha  occ. eigenvalues --  -14.21197 -14.19346 -10.19576 -10.15399 -10.12625
 Alpha  occ. eigenvalues --  -10.11015 -10.10613 -10.10436 -10.10290 -10.08170
 Alpha  occ. eigenvalues --  -10.07424 -10.06844  -1.05104  -0.95031  -0.84696
 Alpha  occ. eigenvalues --   -0.83112  -0.80951  -0.79560  -0.76105  -0.69592
 Alpha  occ. eigenvalues --   -0.66913  -0.65130  -0.58051  -0.54543  -0.53779
 Alpha  occ. eigenvalues --   -0.53441  -0.49771  -0.48405  -0.46368  -0.45013
 Alpha  occ. eigenvalues --   -0.41944  -0.40436  -0.39597  -0.37875  -0.36994
 Alpha  occ. eigenvalues --   -0.36916  -0.36037  -0.34601  -0.34019  -0.32923
 Alpha  occ. eigenvalues --   -0.32254  -0.31448  -0.30678  -0.30137  -0.29327
 Alpha  occ. eigenvalues --   -0.28556  -0.27050  -0.26246  -0.25449  -0.24077
 Alpha  occ. eigenvalues --   -0.23365  -0.22664  -0.21940  -0.19371  -0.18872
 Alpha  occ. eigenvalues --   -0.18787  -0.16561  -0.14660  -0.12294   0.04083
 Alpha virt. eigenvalues --    0.05740   0.06664   0.07778   0.08023   0.08636
 Alpha virt. eigenvalues --    0.09193   0.10084   0.10603   0.10784   0.11201
 Alpha virt. eigenvalues --    0.11923   0.12441   0.12824   0.13129   0.13676

  Beta  occ. eigenvalues --  -19.09755 -18.98398 -14.24323 -14.23906 -14.22385
  Beta  occ. eigenvalues --  -14.21213 -14.19342 -10.19563 -10.15156 -10.12567
  Beta  occ. eigenvalues --  -10.10988 -10.10609 -10.10429 -10.10278 -10.08172
  Beta  occ. eigenvalues --  -10.07423 -10.06825  -1.04712  -0.95004  -0.84681
  Beta  occ. eigenvalues --   -0.82934  -0.80920  -0.79488  -0.75730  -0.69557
  Beta  occ. eigenvalues --   -0.66884  -0.65058  -0.58005  -0.54488  -0.53706
  Beta  occ. eigenvalues --   -0.53045  -0.49730  -0.48241  -0.46313  -0.44931
  Beta  occ. eigenvalues --   -0.41763  -0.40385  -0.39391  -0.37319  -0.36888
  Beta  occ. eigenvalues --   -0.36714  -0.35986  -0.34515  -0.33976  -0.32875
  Beta  occ. eigenvalues --   -0.32155  -0.31360  -0.30581  -0.30097  -0.29273
  Beta  occ. eigenvalues --   -0.28493  -0.27001  -0.26224  -0.25402  -0.24007
  Beta  occ. eigenvalues --   -0.23104  -0.22595  -0.21308  -0.19222  -0.18799
  Beta  occ. eigenvalues --   -0.17515  -0.16522  -0.14650  -0.12258
  Beta virt. eigenvalues --    0.06615   0.07306   0.07760   0.08110   0.08480
  Beta virt. eigenvalues --    0.08911   0.09469   0.10370   0.10866   0.11038
  Beta virt. eigenvalues --    0.11341   0.12095   0.12615   0.13012   0.13199

 Mulliken charges and spin densities:
               1          2
     1  C    0.215728  -0.298777
     2  C   -0.312859  -0.130327
     3  N    0.003644   0.087233
     4  C    0.901615  -2.013320
     5  C   -0.654874   0.970854
     6  C   -0.727686  -0.080072
     7  N    0.156212   0.003558
     8  C   -0.087634   0.024190
     9  C    0.140066  -0.210386
    10  C   -0.243915  -0.220645
    11  N   -0.282585   0.155392
    12  O    0.112556   0.024602
    13  C   -0.071187   0.286828
    14  N   -0.217159  -0.016671
    15  C    0.460697  -0.250635
    16  O   -0.387102  -0.006384
    17  N   -0.370604  -0.008077
    18  H    0.168490   0.015262
    19  H    0.128880   0.012649
    20  H    0.078439   0.057024
    21  H    0.213698  -0.003047
    22  H   -0.295144   0.476887
    23  H   -0.076629   0.238962
    24  H    0.107570   0.074689
    25  H   -0.104144   0.237003
    26  H    0.071125   0.081470
    27  H    0.216769  -0.014084
    28  H    0.159533   0.012651
    29  H   -0.106769   0.244456
    30  H    0.040800   0.179063
    31  H   -0.091422   0.232997
    32  H    0.110060   0.040068
    33  H   -0.232418   0.480723
    34  H   -0.023754   0.315864
 Sum of Mulliken charges =  -1.00000   1.00000

 Dipole moment (field-independent basis, Debye):
    X=              1.8048    Y=              2.8164    Z=             -3.4758  Tot=              4.8240
 Quadrupole moment (field-independent basis, Debye-Ang):
   XX=           -205.1206   YY=           -129.9899   ZZ=           -131.6475
   XY=             -9.5973   XZ=             -3.1279   YZ=              4.9197

 Summary of Natural Population Analysis:

                                       Natural Population
                Natural  -----------------------------------------------
    Atom  No    Charge         Core      Valence    Rydberg      Total
 -----------------------------------------------------------------------
      C    1   -0.19404      0.99961     2.18654    0.00789     3.19404
      C    2   -0.08316      0.99961     2.07434    0.00920     3.08316
      N    3   -0.27047      0.99963     2.76058    0.01025     3.77047
      C    4   -0.08192      0.99961     2.07078    0.01154     3.08192
      C    5   -0.20561      0.99960     2.19585    0.01016     3.20561
      C    6   -0.00503      0.99958     1.99246    0.01300     3.00503
      N    7   -0.35062      0.99973     2.83971    0.01118     3.85062
      C    8   -0.08034      0.99963     2.06851    0.01220     3.08034
      C    9   -0.22032      0.99957     2.21202    0.00873     3.22032
      C   10    0.17351      0.99965     1.80760    0.01924     2.82649
      N   11   -0.06643      0.99966     2.55462    0.01215     3.56643
      O   12   -0.15253      0.99987     3.14452    0.00813     4.15253
      C   13    0.23356      0.99969     1.74663    0.02012     2.76644
      N   14   -0.29058      0.99970     2.78133    0.00956     3.79058
      C   15    0.40959      0.99969     1.56774    0.02297     2.59041
      O   16   -0.34331      0.99987     3.33802    0.00541     4.34331
      N   17   -0.41788      0.99972     2.90939    0.00877     3.91788
      H   18    0.10308      0.00000     0.39591    0.00101     0.39692
      H   19    0.09754      0.00000     0.40109    0.00137     0.40246
      H   20    0.08511      0.00000     0.41371    0.00118     0.41489
      H   21    0.11524      0.00000     0.38370    0.00106     0.38476
      H   22    0.10706      0.00000     0.39108    0.00186     0.39294
      H   23    0.08723      0.00000     0.41136    0.00140     0.41277
      H   24    0.10262      0.00000     0.39518    0.00220     0.39738
      H   25    0.10176      0.00000     0.39647    0.00176     0.39824
      H   26    0.08566      0.00000     0.41218    0.00216     0.41434
      H   27    0.18712      0.00000     0.31041    0.00247     0.31288
      H   28    0.09004      0.00000     0.40883    0.00114     0.40996
      H   29    0.09376      0.00000     0.40527    0.00097     0.40624
      H   30    0.10871      0.00000     0.39010    0.00119     0.39129
      H   31    0.10905      0.00000     0.38910    0.00185     0.39095
      H   32    0.08654      0.00000     0.41262    0.00085     0.41346
      H   33    0.19246      0.00000     0.30284    0.00471     0.30754
      H   34    0.19258      0.00000     0.30558    0.00184     0.30742
 =======================================================================
   * Total *   -0.00000     16.99442    46.77606    0.22952    64.00000

 Normal termination of Gaussian 16 at Sun Dec 13 21:00:51 2020.
