 Gaussian 16, Revision A.03,

 -----------------------------------------------------------
 # opt freq B3LYP/6-31G(d) empiricaldispersion=gd3bj scf=xqc
 -----------------------------------------------------------

 -------------------------------
 CID_105593173_JID_8199_neutraal
 -------------------------------
 Symbolic Z-matrix:
 Charge =  0 Multiplicity = 1

 SCF Done:  E(RB3LYP) =  -841.197930974     A.U. after   15 cycles
 SCF Done:  E(RB3LYP) =  -841.201860041     A.U. after   13 cycles
 SCF Done:  E(RB3LYP) =  -841.196186775     A.U. after   13 cycles
 SCF Done:  E(RB3LYP) =  -841.201618417     A.U. after   12 cycles
 SCF Done:  E(RB3LYP) =  -841.204636379     A.U. after   10 cycles
 SCF Done:  E(RB3LYP) =  -841.204686688     A.U. after   12 cycles
 SCF Done:  E(RB3LYP) =  -841.205544018     A.U. after   12 cycles
 SCF Done:  E(RB3LYP) =  -841.205713172     A.U. after   12 cycles
 SCF Done:  E(RB3LYP) =  -841.205756322     A.U. after   11 cycles
 SCF Done:  E(RB3LYP) =  -841.205826848     A.U. after   11 cycles
 SCF Done:  E(RB3LYP) =  -841.205866544     A.U. after   10 cycles
 SCF Done:  E(RB3LYP) =  -841.205867996     A.U. after    8 cycles
 SCF Done:  E(RB3LYP) =  -841.205869785     A.U. after    9 cycles
 SCF Done:  E(RB3LYP) =  -841.205870579     A.U. after    8 cycles
 SCF Done:  E(RB3LYP) =  -841.205870684     A.U. after    7 cycles
 Optimization completed.
    -- Stationary point found.
 Normal termination of Gaussian 16 at Fri Dec 11 19:38:54 2020.

 --------------------------------------------------------------------
 #N Geom=AllCheck Guess=TCheck SCRF=Check GenChk RB3LYP/6-31G(d) Freq
 --------------------------------------------------------------------

 Structure from the checkpoint file:  "JID_8199.chk"
 -------------------------------
 CID_105593173_JID_8199_neutraal
 -------------------------------
 Charge =  0 Multiplicity = 1

 SCF Done:  E(RB3LYP) =  -841.205870684     A.U. after    1 cycles

  Exact polarizability: 197.706   0.019 139.848  -3.296   0.979 139.326
 Approx polarizability: 259.860   9.529 204.240 -10.619   3.141 217.133

                      1                      2                      3
                      A                      A                      A
 Frequencies --     40.5666                49.5924                61.4727
 Red. masses --      4.1425                 3.1510                 6.3702
 Frc consts  --      0.0040                 0.0046                 0.0142
 IR Inten    --      0.9819                 0.0946                 1.5410

                      4                      5                      6
                      A                      A                      A
 Frequencies --     68.9124                88.6649               135.5253
 Red. masses --      3.8180                 3.5658                 3.4192
 Frc consts  --      0.0107                 0.0165                 0.0370
 IR Inten    --      0.4796                 0.5061                 0.4631

                      7                      8                      9
                      A                      A                      A
 Frequencies --    148.4841               172.9965               178.6674
 Red. masses --      3.4655                 3.1120                 2.8581
 Frc consts  --      0.0450                 0.0549                 0.0538
 IR Inten    --      0.4324                 0.6995                 1.7475

                     10                     11                     12
                      A                      A                      A
 Frequencies --    188.2310               196.6559               216.3349
 Red. masses --      2.7108                 4.1412                 1.2777
 Frc consts  --      0.0566                 0.0944                 0.0352
 IR Inten    --      2.2818                 1.5033                 0.2792

                     13                     14                     15
                      A                      A                      A
 Frequencies --    245.4382               261.8337               268.1435
 Red. masses --      2.4243                 1.3526                 1.0758
 Frc consts  --      0.0860                 0.0546                 0.0456
 IR Inten    --      2.0920                 1.0660                 1.5192

                     16                     17                     18
                      A                      A                      A
 Frequencies --    276.2884               289.7119               293.8502
 Red. masses --      2.7089                 1.1822                 2.0925
 Frc consts  --      0.1218                 0.0585                 0.1065
 IR Inten    --     19.7524                 4.6358                 1.4486

                     19                     20                     21
                      A                      A                      A
 Frequencies --    323.8521               340.4837               352.0229
 Red. masses --      2.6347                 1.6199                 2.9810
 Frc consts  --      0.1628                 0.1106                 0.2177
 IR Inten    --      8.5772                67.9918                24.4411

                     22                     23                     24
                      A                      A                      A
 Frequencies --    357.7160               368.7338               382.3454
 Red. masses --      2.7458                 2.5589                 2.5539
 Frc consts  --      0.2070                 0.2050                 0.2200
 IR Inten    --      6.7975                 2.5804                 0.9764

                     25                     26                     27
                      A                      A                      A
 Frequencies --    403.4659               421.8238               434.7674
 Red. masses --      2.0017                 1.5822                 2.5202
 Frc consts  --      0.1920                 0.1659                 0.2807
 IR Inten    --     22.2381                42.8826                 1.2758

                     28                     29                     30
                      A                      A                      A
 Frequencies --    460.9407               472.9750               546.5530
 Red. masses --      2.7057                 2.5589                 3.1569
 Frc consts  --      0.3387                 0.3373                 0.5556
 IR Inten    --     14.1089                 1.5446                29.6274

                     31                     32                     33
                      A                      A                      A
 Frequencies --    560.8551               595.9113               625.8198
 Red. masses --      2.7249                 5.2913                 3.9571
 Frc consts  --      0.5050                 1.1071                 0.9131
 IR Inten    --      3.9894                 6.4035                 6.1240

                     34                     35                     36
                      A                      A                      A
 Frequencies --    638.5003               696.3551               727.8458
 Red. masses --      3.5238                 3.8671                 4.0101
 Frc consts  --      0.8464                 1.1048                 1.2516
 IR Inten    --     25.0042                 7.3155                 2.1993

                     37                     38                     39
                      A                      A                      A
 Frequencies --    757.0454               789.7117               813.5761
 Red. masses --      3.9170                 1.6655                 2.4419
 Frc consts  --      1.3227                 0.6120                 0.9523
 IR Inten    --     53.2808               163.2638                14.0304

                     40                     41                     42
                      A                      A                      A
 Frequencies --    869.1509               899.0870               907.6617
 Red. masses --      3.2398                 2.5925                 3.1391
 Frc consts  --      1.4420                 1.2347                 1.5237
 IR Inten    --     14.6787                 1.0868                20.8002

                     43                     44                     45
                      A                      A                      A
 Frequencies --    934.8350               947.5335               954.6303
 Red. masses --      1.6192                 1.2890                 1.8712
 Frc consts  --      0.8337                 0.6818                 1.0047
 IR Inten    --     14.9131                 0.4831                16.0708

                     46                     47                     48
                      A                      A                      A
 Frequencies --    969.4070               976.1656               984.7239
 Red. masses --      2.2047                 2.3881                 2.2163
 Frc consts  --      1.2207                 1.3408                 1.2662
 IR Inten    --      6.5048                63.8791                 2.7870

                     49                     50                     51
                      A                      A                      A
 Frequencies --    998.2350              1028.2901              1084.1254
 Red. masses --      2.2596                 2.2398                 1.9891
 Frc consts  --      1.3266                 1.3954                 1.3774
 IR Inten    --     28.9684                21.7272                36.3530

                     52                     53                     54
                      A                      A                      A
 Frequencies --   1093.0159              1109.1541              1123.5620
 Red. masses --      2.0350                 1.7943                 1.6075
 Frc consts  --      1.4324                 1.3006                 1.1957
 IR Inten    --      9.8726                 4.8214                22.1246

                     55                     56                     57
                      A                      A                      A
 Frequencies --   1129.3546              1146.9090              1159.6553
 Red. masses --      1.8157                 1.6030                 2.2789
 Frc consts  --      1.3644                 1.2424                 1.8056
 IR Inten    --      0.0671                12.6864                 1.5248

                     58                     59                     60
                      A                      A                      A
 Frequencies --   1184.8207              1189.2237              1190.9211
 Red. masses --      1.7745                 1.5687                 2.5745
 Frc consts  --      1.4677                 1.3071                 2.1513
 IR Inten    --     22.7627                44.5577                16.3305

                     61                     62                     63
                      A                      A                      A
 Frequencies --   1207.3857              1215.8181              1253.9646
 Red. masses --      2.3200                 1.8939                 1.3828
 Frc consts  --      1.9926                 1.6495                 1.2811
 IR Inten    --     19.0667                 2.4687                84.8928

                     64                     65                     66
                      A                      A                      A
 Frequencies --   1288.3176              1303.6761              1316.7937
 Red. masses --      2.7641                 1.7311                 1.3501
 Frc consts  --      2.7031                 1.7334                 1.3793
 IR Inten    --      4.7343                84.8007                20.7579

                     67                     68                     69
                      A                      A                      A
 Frequencies --   1337.7711              1346.9191              1348.7456
 Red. masses --      1.4064                 1.8063                 1.2407
 Frc consts  --      1.4829                 1.9307                 1.3297
 IR Inten    --     53.9792                49.2368                16.5911

                     70                     71                     72
                      A                      A                      A
 Frequencies --   1363.6098              1370.5462              1382.2862
 Red. masses --      1.4397                 1.5532                 1.5173
 Frc consts  --      1.5773                 1.7189                 1.7081
 IR Inten    --      5.8213                57.7667                12.9807

                     73                     74                     75
                      A                      A                      A
 Frequencies --   1386.0189              1396.2113              1414.0254
 Red. masses --      1.3651                 1.2684                 1.4396
 Frc consts  --      1.5451                 1.4568                 1.6959
 IR Inten    --      4.1939                 4.4353                 8.3354

                     76                     77                     78
                      A                      A                      A
 Frequencies --   1427.0906              1428.4005              1437.9657
 Red. masses --      1.2711                 1.3971                 1.4951
 Frc consts  --      1.5253                 1.6795                 1.8215
 IR Inten    --      8.1600                 2.6953                29.6776

                     79                     80                     81
                      A                      A                      A
 Frequencies --   1439.1897              1450.2088              1461.9586
 Red. masses --      1.4723                 1.2242                 2.0113
 Frc consts  --      1.7968                 1.5169                 2.5328
 IR Inten    --      6.5727                 6.0650               144.6482

                     82                     83                     84
                      A                      A                      A
 Frequencies --   1485.5287              1513.2480              1515.4894
 Red. masses --      1.1989                 1.0595                 1.0590
 Frc consts  --      1.5589                 1.4295                 1.4330
 IR Inten    --      0.1493                 3.1182                14.8761

                     85                     86                     87
                      A                      A                      A
 Frequencies --   1517.9284              1518.7585              1526.8922
 Red. masses --      1.0535                 1.0569                 1.0735
 Frc consts  --      1.4301                 1.4363                 1.4746
 IR Inten    --      3.5683                 1.8040                11.3863

                     88                     89                     90
                      A                      A                      A
 Frequencies --   1530.4062              1535.3650              1535.6057
 Red. masses --      1.0504                 1.0448                 1.0656
 Frc consts  --      1.4495                 1.4512                 1.4805
 IR Inten    --      3.2443                 4.1660                 5.3626

                     91                     92                     93
                      A                      A                      A
 Frequencies --   1537.5493              1546.0585              1547.6467
 Red. masses --      1.0889                 1.0644                 1.0517
 Frc consts  --      1.5167                 1.4991                 1.4842
 IR Inten    --      6.6741                 0.7292                 4.4871

                     94                     95                     96
                      A                      A                      A
 Frequencies --   1660.2837              1728.1909              1739.6337
 Red. masses --      1.2074                 5.3841                 9.5972
 Frc consts  --      1.9610                 9.4743                17.1124
 IR Inten    --     50.5597                67.0648               286.2818

                     97                     98                     99
                      A                      A                      A
 Frequencies --   2902.5234              2938.2044              2949.9000
 Red. masses --      1.0730                 1.0642                 1.0690
 Frc consts  --      5.3259                 5.4128                 5.4810
 IR Inten    --     53.0964                48.6675               131.7256

                    100                    101                    102
                      A                      A                      A
 Frequencies --   3046.8640              3053.0816              3053.3733
 Red. masses --      1.0354                 1.0527                 1.0545
 Frc consts  --      5.6631                 5.7811                 5.7923
 IR Inten    --     29.0391                21.8082                24.2254

                    103                    104                    105
                      A                      A                      A
 Frequencies --   3063.9472              3079.1408              3082.3846
 Red. masses --      1.0399                 1.0731                 1.0867
 Frc consts  --      5.7517                 5.9946                 6.0832
 IR Inten    --     17.0794                18.1904                39.6639

                    106                    107                    108
                      A                      A                      A
 Frequencies --   3085.8519              3107.5153              3109.9583
 Red. masses --      1.0860                 1.0854                 1.1011
 Frc consts  --      6.0929                 6.1757                 6.2749
 IR Inten    --     60.6057                 9.9491                 8.5207

                    109                    110                    111
                      A                      A                      A
 Frequencies --   3112.9575              3123.4105              3124.4875
 Red. masses --      1.1016                 1.0850                 1.1043
 Frc consts  --      6.2893                 6.2365                 6.3516
 IR Inten    --     55.0476                 2.1949                27.8818

                    112                    113                    114
                      A                      A                      A
 Frequencies --   3130.8241              3134.2845              3148.2454
 Red. masses --      1.1009                 1.0994                 1.1006
 Frc consts  --      6.3577                 6.3630                 6.4270
 IR Inten    --     21.3023                17.6927                35.1445

                    115                    116                    117
                      A                      A                      A
 Frequencies --   3150.2590              3173.9962              3177.5841
 Red. masses --      1.0990                 1.0923                 1.0857
 Frc consts  --      6.4257                 6.4832                 6.4591
 IR Inten    --      6.7782                 4.2927                 7.3502

                    118                    119                    120
                      A                      A                      A
 Frequencies --   3515.6020              3618.1285              3773.2171
 Red. masses --      1.0473                 1.0977                 1.0678
 Frc consts  --      7.6265                 8.4667                 8.9566
 IR Inten    --     11.1623                27.7095                73.4635

 - Thermochemistry -
 -------------------
 Temperature   298.150 Kelvin.  Pressure   1.00000 Atm.
 Atom     1 has atomic number  6 and mass  12.00000

 Molecular mass:   256.18993 amu.
 Principal axes and moments of inertia in atomic units:
                           1         2         3
     Eigenvalues --  2492.423106898.662907079.97754
           X            0.99976  -0.02168   0.00267
           Y            0.02182   0.99682  -0.07659
           Z           -0.00101   0.07663   0.99706
 This molecule is an asymmetric top.
 Rotational symmetry number  1.
 Warning -- assumption of classical behavior for rotation
           may cause significant error
 Rotational temperatures (Kelvin)      0.03475     0.01256     0.01223
 Rotational constants (GHZ):           0.72409     0.26161     0.25491
 Zero-point vibrational energy     979767.7 (Joules/Mol)
                                  234.17009 (Kcal/Mol)
 Warning -- explicit consideration of  32 degrees of freedom as
           vibrations may cause significant error
 Vibrational temperatures:     58.37    71.35    88.45    99.15   127.57
          (Kelvin)            194.99   213.64   248.90   257.06   270.82
                              282.94   311.26   353.13   376.72   385.80
                              397.52   416.83   422.78   465.95   489.88
                              506.48   514.67   530.53   550.11   580.50
                              606.91   625.53   663.19   680.51   786.37
                              806.95   857.38   900.42   918.66  1001.90
                             1047.21  1089.22  1136.22  1170.55  1250.51
                             1293.59  1305.92  1345.02  1363.29  1373.50
                             1394.76  1404.48  1416.80  1436.24  1479.48
                             1559.81  1572.61  1595.83  1616.56  1624.89
                             1650.15  1668.49  1704.69  1711.03  1713.47
                             1737.16  1749.29  1804.18  1853.60  1875.70
                             1894.57  1924.75  1937.92  1940.54  1961.93
                             1971.91  1988.80  1994.17  2008.84  2034.47
                             2053.27  2055.15  2068.91  2070.67  2086.53
                             2103.43  2137.34  2177.23  2180.45  2183.96
                             2185.15  2196.86  2201.91  2209.05  2209.39
                             2212.19  2224.43  2226.72  2388.78  2486.48
                             2502.94  4176.08  4227.42  4244.25  4383.76
                             4392.70  4393.12  4408.34  4430.20  4434.86
                             4439.85  4471.02  4474.54  4478.85  4493.89
                             4495.44  4504.56  4509.54  4529.62  4532.52
                             4566.67  4571.83  5058.17  5205.68  5428.82

 Zero-point correction=                           0.373174 (Hartree/Particle)
 Thermal correction to Energy=                    0.392753
 Thermal correction to Enthalpy=                  0.393697
 Thermal correction to Gibbs Free Energy=         0.326563
 Sum of electronic and zero-point Energies=           -840.832697
 Sum of electronic and thermal Energies=              -840.813118
 Sum of electronic and thermal Enthalpies=            -840.812174
 Sum of electronic and thermal Free Energies=         -840.879308

                     E (Thermal)             CV                S
                      KCal/Mol        Cal/Mol-Kelvin    Cal/Mol-Kelvin
 Total                  246.456             75.250            141.295
 Electronic               0.000              0.000              0.000
 Translational            0.889              2.981             42.522
 Rotational               0.889              2.981             33.165
 Vibrational            244.679             69.288             65.608
 Vibration     1          0.594              1.981              5.231
 Vibration     2          0.595              1.978              4.834
 Vibration     3          0.597              1.973              4.409
 Vibration     4          0.598              1.969              4.184
 Vibration     5          0.601              1.957              3.689
 Vibration     6          0.613              1.918              2.866
 Vibration     7          0.618              1.904              2.692
 Vibration     8          0.627              1.876              2.403
 Vibration     9          0.629              1.869              2.342
 Vibration    10          0.633              1.856              2.245
 Vibration    11          0.636              1.845              2.164
 Vibration    12          0.645              1.816              1.990
 Vibration    13          0.660              1.770              1.763
 Vibration    14          0.669              1.743              1.650
 Vibration    15          0.673              1.732              1.608
 Vibration    16          0.678              1.717              1.557
 Vibration    17          0.686              1.693              1.476
 Vibration    18          0.689              1.685              1.452
 Vibration    19          0.708              1.628              1.291
 Vibration    20          0.720              1.595              1.210
 Vibration    21          0.729              1.571              1.157
 Vibration    22          0.733              1.559              1.132
 Vibration    23          0.741              1.537              1.085
 Vibration    24          0.752              1.508              1.030
 Vibration    25          0.769              1.463              0.950
 Vibration    26          0.784              1.423              0.886
 Vibration    27          0.795              1.394              0.843
 Vibration    28          0.819              1.337              0.763
 Vibration    29          0.830              1.310              0.729
 Vibration    30          0.902              1.147              0.551
 Vibration    31          0.917              1.116              0.522
 Vibration    32          0.954              1.040              0.457

 Optimization completed.
    -- Stationary point found.
 Normal termination of Gaussian 16 at Fri Dec 11 20:01:42 2020.

 ----------------------------------------------------------------------
 # B3LYP/6-311++G(d,p) empiricaldispersion=gd3bj scf=xqc pop=npa geom=c
 heck
 ----------------------------------------------------------------------

 ---------------------------------------
 CID_105593173_JID_8199_Energie_neutraal
 ---------------------------------------
 Structure from the checkpoint file:  "JID_8199.chk"
 Charge =  0 Multiplicity = 1

 SCF Done:  E(RB3LYP) =  -841.457643078     A.U. after   15 cycles
 Normal termination of Gaussian 16 at Fri Dec 11 20:11:14 2020.

 ----------------------------------------------------------------------
 # B3LYP/6-311++G(d,p) empiricaldispersion=gd3bj scf=xqc pop=npa geom=c
 heck
 ----------------------------------------------------------------------

 -------------------------------------
 CID_105593173_JID_8199_Energie_kation
 -------------------------------------
 Structure from the checkpoint file:  "JID_8199.chk"
 Charge =  1 Multiplicity = 2

 SCF Done:  E(UB3LYP) =  -841.168255387     A.U. after   27 cycles
 Normal termination of Gaussian 16 at Fri Dec 11 20:35:02 2020.
 Gaussian 16:  ES64L-G16RevA.03 25-Dec-2016

 ----------------------------------------------------------------------
 # B3LYP/6-311++G(d,p) empiricaldispersion=gd3bj scf=xqc pop=npa geom=c
 heck
 ----------------------------------------------------------------------

 ------------------------------------
 CID_105593173_JID_8199_Energie_anion
 ------------------------------------
 Structure from the checkpoint file:  "JID_8199.chk"
 Charge = -1 Multiplicity = 2

                         Standard orientation:
 ---------------------------------------------------------------------
 Center     Atomic      Atomic             Coordinates (Angstroms)
 Number     Number       Type             X           Y           Z
 ---------------------------------------------------------------------
      1          6           0        1.438534    2.079871   -0.966579
      2          6           0        1.128249    0.596784   -0.706340
      3          6           0        2.293794   -0.285666   -1.180167
      4          7           0        3.479818   -0.083558   -0.355800
      5          6           0        3.187158   -0.419118    1.033395
      6          6           0        2.055967    0.448640    1.573374
      7          7           0        0.873506    0.322375    0.717788
      8          6           0       -0.354245    0.185066    1.336861
      9          8           0       -0.439834    0.153022    2.561912
     10          6           0       -1.646027    0.005690    0.514356
     11          6           0       -2.007864    1.223232   -0.419512
     12          6           0       -2.433208    0.825616   -1.837638
     13          6           0       -3.087648    2.073773    0.261111
     14          6           0       -1.759993   -1.364296   -0.128189
     15          7           0       -2.871273   -1.991569   -0.294849
     16          8           0       -3.981509   -1.193374    0.103141
     17          7           0       -0.613958   -1.995006   -0.611775
     18          6           0        4.619257   -0.828044   -0.864594
     19          1           0        0.721433    2.735459   -0.464835
     20          1           0        1.394664    2.282997   -2.042245
     21          1           0        2.443671    2.329219   -0.618053
     22          1           0        0.248732    0.290319   -1.268347
     23          1           0        1.973311   -1.345145   -1.179450
     24          1           0        2.537723   -0.021989   -2.215459
     25          1           0        4.088861   -0.253904    1.633869
     26          1           0        2.907602   -1.488522    1.140820
     27          1           0        2.380258    1.496053    1.615674
     28          1           0        1.767205    0.141753    2.577411
     29          1           0       -2.404317   -0.016184    1.298024
     30          1           0       -1.118427    1.850733   -0.507469
     31          1           0       -3.356885    0.241525   -1.814250
     32          1           0       -2.608312    1.726156   -2.437371
     33          1           0       -1.668804    0.226377   -2.344690
     34          1           0       -2.765474    2.390808    1.259586
     35          1           0       -3.304360    2.972644   -0.327840
     36          1           0       -4.012705    1.498132    0.367396
     37          1           0       -4.713501   -1.818909   -0.002404
     38          1           0        0.188264   -1.914026    0.004019
     39          1           0       -0.798940   -2.959450   -0.871637
     40          1           0        4.453861   -1.923367   -0.868791
     41          1           0        4.836615   -0.513218   -1.890687
     42          1           0        5.499781   -0.619622   -0.247724
 ---------------------------------------------------------------------

 SCF Done:  E(UB3LYP) =  -841.446631097     A.U. after   33 cycles
 SCF Done:  E(UB3LYP) =  -841.446631097     a.u. after    1 cycles

 The electronic state is 2-A.
 Alpha  occ. eigenvalues --  -19.07297 -18.99848 -14.25479 -14.25416 -14.23605
 Alpha  occ. eigenvalues --  -14.21535 -10.18575 -10.15702 -10.12428 -10.10801
 Alpha  occ. eigenvalues --  -10.10430 -10.10386 -10.10163 -10.09762 -10.09106
 Alpha  occ. eigenvalues --  -10.07096 -10.06988 -10.06675  -0.98789  -0.95183
 Alpha  occ. eigenvalues --   -0.86563  -0.85294  -0.82235  -0.74200  -0.72293
 Alpha  occ. eigenvalues --   -0.69749  -0.66239  -0.63219  -0.60703  -0.59811
 Alpha  occ. eigenvalues --   -0.56306  -0.54454  -0.50973  -0.50415  -0.48645
 Alpha  occ. eigenvalues --   -0.45493  -0.44339  -0.42477  -0.39534  -0.39223
 Alpha  occ. eigenvalues --   -0.38501  -0.37904  -0.37567  -0.37056  -0.36079
 Alpha  occ. eigenvalues --   -0.35522  -0.35012  -0.34257  -0.33162  -0.32277
 Alpha  occ. eigenvalues --   -0.31454  -0.31021  -0.30163  -0.29247  -0.28999
 Alpha  occ. eigenvalues --   -0.28419  -0.27853  -0.27509  -0.26590  -0.25816
 Alpha  occ. eigenvalues --   -0.25327  -0.25053  -0.24848  -0.24649  -0.23101
 Alpha  occ. eigenvalues --   -0.19752  -0.16725  -0.15825  -0.13878  -0.13166
 Alpha  occ. eigenvalues --    0.04028
 Alpha virt. eigenvalues --    0.05789   0.06378   0.06947   0.07361   0.07974
 Alpha virt. eigenvalues --    0.08356   0.08865   0.09465   0.09685   0.10336
 Alpha virt. eigenvalues --    0.10841   0.10927   0.11003   0.11377   0.11945

  Beta  occ. eigenvalues --  -19.07285 -18.99837 -14.25464 -14.25419 -14.23582
  Beta  occ. eigenvalues --  -14.21521 -10.18560 -10.15697 -10.12424 -10.10792
  Beta  occ. eigenvalues --  -10.10426 -10.10360 -10.10137 -10.09756 -10.09065
  Beta  occ. eigenvalues --  -10.07084 -10.06962 -10.06658  -0.98767  -0.95163
  Beta  occ. eigenvalues --   -0.86547  -0.85266  -0.82214  -0.74167  -0.72272
  Beta  occ. eigenvalues --   -0.69723  -0.66211  -0.63192  -0.60649  -0.59781
  Beta  occ. eigenvalues --   -0.56252  -0.54406  -0.50921  -0.50369  -0.48604
  Beta  occ. eigenvalues --   -0.45459  -0.44300  -0.42453  -0.39496  -0.39190
  Beta  occ. eigenvalues --   -0.38478  -0.37880  -0.37531  -0.37009  -0.36048
  Beta  occ. eigenvalues --   -0.35495  -0.34978  -0.34233  -0.33131  -0.32254
  Beta  occ. eigenvalues --   -0.31430  -0.30992  -0.30123  -0.29224  -0.28964
  Beta  occ. eigenvalues --   -0.28398  -0.27812  -0.27480  -0.26557  -0.25788
  Beta  occ. eigenvalues --   -0.25291  -0.25033  -0.24822  -0.24622  -0.23083
  Beta  occ. eigenvalues --   -0.19721  -0.16708  -0.15811  -0.13843  -0.13085
  Beta virt. eigenvalues --    0.05931   0.06537   0.06968   0.07582   0.07967
  Beta virt. eigenvalues --    0.08340   0.08628   0.09055   0.09827   0.09986
  Beta virt. eigenvalues --    0.10709   0.10934   0.11098   0.11339   0.11573

 Mulliken charges and spin densities:
               1          2
     1  C    0.938625  -1.443567
     2  C   -1.449134   1.359824
     3  C   -0.164337  -0.675901
     4  N   -0.100826   0.262199
     5  C    0.301655  -0.570373
     6  C    0.112116  -0.330994
     7  N    0.043729   0.062565
     8  C   -0.100066  -0.754748
     9  O   -0.290398   0.013286
    10  C    1.141215  -0.652826
    11  C   -0.272686   0.895638
    12  C   -0.375939  -0.428428
    13  C   -0.395693  -0.241980
    14  C   -0.518774   0.308522
    15  N   -0.301594   0.084226
    16  O   -0.125215  -0.002543
    17  N   -0.376123  -0.015105
    18  C    0.926105  -1.160672
    19  H   -0.108221   0.251687
    20  H   -0.189882   0.368759
    21  H    0.013639   0.151926
    22  H    0.393091  -0.300048
    23  H    0.189289  -0.071627
    24  H   -0.214705   0.425935
    25  H   -0.098450   0.296483
    26  H   -0.081026   0.200855
    27  H    0.102657   0.074830
    28  H    0.134434   0.077957
    29  H    0.352670  -0.014970
    30  H    0.239570  -0.055963
    31  H    0.163859  -0.019148
    32  H   -0.179007   0.338073
    33  H   -0.130820   0.288447
    34  H    0.122698   0.036143
    35  H   -0.087252   0.226545
    36  H    0.114867   0.046533
    37  H    0.145430   0.137338
    38  H    0.246464   0.009606
    39  H   -0.113408   0.415352
    40  H   -0.288951   0.415115
    41  H   -0.377557   0.515562
    42  H   -0.342048   0.475485
 Sum of Mulliken charges =  -1.00000   1.00000

 Dipole moment (field-independent basis, Debye):
    X=             -5.2730    Y=              0.9512    Z=              1.9461  Tot=              5.7006
 Quadrupole moment (field-independent basis, Debye-Ang):
   XX=           -193.4390   YY=           -156.3087   ZZ=           -161.7201
   XY=              6.1608   XZ=              8.2093   YZ=              2.3474

 Summary of Natural Population Analysis:

                                       Natural Population
                Natural  -----------------------------------------------
    Atom  No    Charge         Core      Valence    Rydberg      Total
 -----------------------------------------------------------------------
      C    1   -0.29340      0.99963     2.28782    0.00594     3.29340
      C    2   -0.01943      0.99957     2.00649    0.01337     3.01943
      C    3   -0.08561      0.99958     2.07311    0.01291     3.08561
      N    4   -0.28176      0.99971     2.76912    0.01292     3.78176
      C    5   -0.08690      0.99961     2.07632    0.01098     3.08690
      C    6   -0.09296      0.99959     2.08242    0.01094     3.09296
      N    7   -0.26401      0.99963     2.75358    0.01081     3.76401
      C    8    0.35488      0.99961     1.62244    0.02306     2.64512
      O    9   -0.32267      0.99988     3.31770    0.00509     4.32267
      C   10   -0.17766      0.99948     2.16573    0.01246     3.17766
      C   11   -0.11184      0.99959     2.10215    0.01011     3.11184
      C   12   -0.29065      0.99964     2.28478    0.00623     3.29065
      C   13   -0.28218      0.99965     2.27774    0.00479     3.28218
      C   14    0.21253      0.99959     1.76929    0.01860     2.78747
      N   15   -0.12943      0.99958     2.61662    0.01323     3.62943
      O   16   -0.29649      0.99990     3.28989    0.00669     4.29649
      N   17   -0.39923      0.99971     2.89025    0.00928     3.89923
      C   18   -0.17477      0.99965     2.16644    0.00868     3.17477
      H   19    0.09908      0.00000     0.39984    0.00108     0.40092
      H   20    0.10492      0.00000     0.39411    0.00097     0.39508
      H   21    0.10775      0.00000     0.39058    0.00167     0.39225
      H   22    0.11119      0.00000     0.38513    0.00367     0.38881
      H   23    0.08628      0.00000     0.41150    0.00222     0.41372
      H   24    0.10375      0.00000     0.39459    0.00166     0.39625
      H   25    0.10110      0.00000     0.39765    0.00125     0.39890
      H   26    0.08057      0.00000     0.41738    0.00205     0.41943
      H   27    0.09491      0.00000     0.40388    0.00121     0.40509
      H   28    0.11838      0.00000     0.38056    0.00105     0.38162
      H   29    0.13174      0.00000     0.36618    0.00208     0.36826
      H   30    0.09901      0.00000     0.39826    0.00273     0.40099
      H   31    0.10668      0.00000     0.39201    0.00130     0.39332
      H   32    0.09994      0.00000     0.39925    0.00081     0.40006
      H   33    0.10174      0.00000     0.39699    0.00127     0.39826
      H   34    0.10001      0.00000     0.39925    0.00075     0.39999
      H   35    0.09805      0.00000     0.40120    0.00075     0.40195
      H   36    0.10321      0.00000     0.39579    0.00100     0.39679
      H   37    0.23409      0.00000     0.26284    0.00307     0.26591
      H   38    0.19097      0.00000     0.30611    0.00292     0.30903
      H   39    0.19105      0.00000     0.30624    0.00270     0.30895
      H   40    0.08246      0.00000     0.41565    0.00188     0.41754
      H   41    0.09809      0.00000     0.40041    0.00150     0.40191
      H   42    0.09656      0.00000     0.40193    0.00151     0.40344
 =======================================================================
   * Total *    0.00000     17.99359    51.76923    0.23718    70.00000

 Normal termination of Gaussian 16 at Fri Dec 11 21:04:50 2020.
