 Gaussian 16, Revision A.03,

 -----------------------------------------------------------
 # opt freq B3LYP/6-31G(d) empiricaldispersion=gd3bj scf=xqc
 -----------------------------------------------------------

 ------------------------------
 CID_81575063_JID_7241_neutraal
 ------------------------------
 Symbolic Z-matrix:
 Charge =  0 Multiplicity = 1

 SCF Done:  E(RB3LYP) =  -747.569135250     A.U. after   14 cycles
 SCF Done:  E(RB3LYP) =  -747.575221039     A.U. after   12 cycles
 SCF Done:  E(RB3LYP) =  -747.575193218     A.U. after   13 cycles
 SCF Done:  E(RB3LYP) =  -747.576622025     A.U. after   12 cycles
 SCF Done:  E(RB3LYP) =  -747.577090474     A.U. after   12 cycles
 SCF Done:  E(RB3LYP) =  -747.577319244     A.U. after   12 cycles
 SCF Done:  E(RB3LYP) =  -747.577402881     A.U. after   12 cycles
 SCF Done:  E(RB3LYP) =  -747.577457066     A.U. after   11 cycles
 SCF Done:  E(RB3LYP) =  -747.577482998     A.U. after   10 cycles
 SCF Done:  E(RB3LYP) =  -747.577488259     A.U. after    9 cycles
 SCF Done:  E(RB3LYP) =  -747.577489623     A.U. after    9 cycles
 SCF Done:  E(RB3LYP) =  -747.577489717     A.U. after    8 cycles
 SCF Done:  E(RB3LYP) =  -747.577489831     A.U. after    7 cycles
 Optimization completed.
    -- Stationary point found.
 Normal termination of Gaussian 16 at Sun Dec 13 12:31:38 2020.

 --------------------------------------------------------------------
 #N Geom=AllCheck Guess=TCheck SCRF=Check GenChk RB3LYP/6-31G(d) Freq
 --------------------------------------------------------------------

 Structure from the checkpoint file:  "JID_7241.chk"
 ------------------------------
 CID_81575063_JID_7241_neutraal
 ------------------------------
 Charge =  0 Multiplicity = 1

 SCF Done:  E(RB3LYP) =  -747.577489831     A.U. after    1 cycles

  Exact polarizability: 169.710  24.319 159.079 -17.316  11.941 141.440
 Approx polarizability: 234.044  48.380 242.511 -30.658  29.172 223.254

                      1                      2                      3
                      A                      A                      A
 Frequencies --     23.4590                26.1521                54.3043
 Red. masses --      3.6565                 4.8649                 3.1462
 Frc consts  --      0.0012                 0.0020                 0.0055
 IR Inten    --      0.3711                 0.7929                 1.0772

                      4                      5                      6
                      A                      A                      A
 Frequencies --     89.1644               110.2210               126.8598
 Red. masses --      3.4640                 3.3869                 2.5795
 Frc consts  --      0.0162                 0.0242                 0.0245
 IR Inten    --      0.6796                 1.1450                 2.1732

                      7                      8                      9
                      A                      A                      A
 Frequencies --    152.5432               185.6397               211.7547
 Red. masses --      1.2567                 4.1364                 2.8915
 Frc consts  --      0.0172                 0.0840                 0.0764
 IR Inten    --      1.3570                 5.2193                 6.3923

                     10                     11                     12
                      A                      A                      A
 Frequencies --    242.1646               253.9860               265.2518
 Red. masses --      1.9443                 2.0078                 1.3968
 Frc consts  --      0.0672                 0.0763                 0.0579
 IR Inten    --      0.4814                 6.5960                11.6486

                     13                     14                     15
                      A                      A                      A
 Frequencies --    287.9455               313.2760               359.7501
 Red. masses --      2.7900                 2.2283                 3.5177
 Frc consts  --      0.1363                 0.1288                 0.2682
 IR Inten    --      1.3744                 4.8600                 6.5273

                     16                     17                     18
                      A                      A                      A
 Frequencies --    370.5045               393.1677               399.7910
 Red. masses --      3.6207                 2.0960                 2.3869
 Frc consts  --      0.2928                 0.1909                 0.2248
 IR Inten    --      3.4318                 6.0431                 0.9478

                     19                     20                     21
                      A                      A                      A
 Frequencies --    418.2656               457.0757               468.8707
 Red. masses --      2.6399                 4.1391                 2.7761
 Frc consts  --      0.2721                 0.5095                 0.3596
 IR Inten    --      5.7974                 4.0439                 1.0642

                     22                     23                     24
                      A                      A                      A
 Frequencies --    474.0670               517.0152               558.8065
 Red. masses --      2.9674                 2.0677                 4.4604
 Frc consts  --      0.3929                 0.3256                 0.8206
 IR Inten    --      2.8299                 5.0891                 0.9689

                     25                     26                     27
                      A                      A                      A
 Frequencies --    582.0136               601.9544               610.5834
 Red. masses --      2.2460                 3.6739                 2.8642
 Frc consts  --      0.4483                 0.7843                 0.6291
 IR Inten    --      2.1824                 4.1819                20.7309

                     28                     29                     30
                      A                      A                      A
 Frequencies --    687.7244               724.6693               749.7916
 Red. masses --      1.7402                 3.7795                 5.7286
 Frc consts  --      0.4849                 1.1694                 1.8975
 IR Inten    --    285.3194                18.8445                16.8004

                     31                     32                     33
                      A                      A                      A
 Frequencies --    757.2921               804.3787               833.3396
 Red. masses --      3.1105                 3.3779                 1.4937
 Frc consts  --      1.0510                 1.2877                 0.6112
 IR Inten    --      5.0349                 3.7212                 5.4266

                     34                     35                     36
                      A                      A                      A
 Frequencies --    835.2349               856.6355               877.7660
 Red. masses --      1.5496                 2.8918                 2.3393
 Frc consts  --      0.6369                 1.2503                 1.0619
 IR Inten    --     42.5244                 0.6130                 5.4986

                     37                     38                     39
                      A                      A                      A
 Frequencies --    883.9492               913.1541               943.8665
 Red. masses --      1.4976                 2.4062                 1.2845
 Frc consts  --      0.6895                 1.1822                 0.6742
 IR Inten    --     13.0242                 1.8234                 0.5872

                     40                     41                     42
                      A                      A                      A
 Frequencies --    945.8505               971.0304               992.7687
 Red. masses --      2.1329                 2.8566                 1.2888
 Frc consts  --      1.1243                 1.5870                 0.7484
 IR Inten    --      6.2618                 3.2634                 0.4677

                     43                     44                     45
                      A                      A                      A
 Frequencies --   1023.8328              1029.4879              1060.9324
 Red. masses --      2.0405                 2.2159                 2.1638
 Frc consts  --      1.2602                 1.3837                 1.4350
 IR Inten    --     27.7169                 0.6697                16.3928

                     46                     47                     48
                      A                      A                      A
 Frequencies --   1062.5556              1064.9979              1086.3967
 Red. masses --      2.2168                 1.5128                 2.1443
 Frc consts  --      1.4746                 1.0110                 1.4911
 IR Inten    --     42.5265                 2.1047                27.4449

                     49                     50                     51
                      A                      A                      A
 Frequencies --   1097.6909              1114.1700              1153.4092
 Red. masses --      1.6747                 2.5601                 2.1747
 Frc consts  --      1.1889                 1.8724                 1.7046
 IR Inten    --     20.9272                 9.8434                23.1612

                     52                     53                     54
                      A                      A                      A
 Frequencies --   1160.8264              1171.0492              1189.6816
 Red. masses --      2.0663                 1.1821                 1.1890
 Frc consts  --      1.6405                 0.9551                 0.9915
 IR Inten    --      6.0035                11.1748                 2.3084

                     55                     56                     57
                      A                      A                      A
 Frequencies --   1216.5782              1239.1814              1242.5006
 Red. masses --      2.3158                 1.6623                 2.1533
 Frc consts  --      2.0195                 1.5039                 1.9586
 IR Inten    --     17.9161                 8.9013                 1.6027

                     58                     59                     60
                      A                      A                      A
 Frequencies --   1297.4745              1304.2879              1312.4202
 Red. masses --      1.8567                 1.2550                 1.3202
 Frc consts  --      1.8416                 1.2579                 1.3398
 IR Inten    --    181.2684                 9.2838                21.1114

                     61                     62                     63
                      A                      A                      A
 Frequencies --   1316.6312              1344.9351              1361.7507
 Red. masses --      1.2813                 4.1409                 2.0990
 Frc consts  --      1.3087                 4.4132                 2.2933
 IR Inten    --     23.9547                 9.1189                46.3252

                     64                     65                     66
                      A                      A                      A
 Frequencies --   1365.6236              1372.4433              1376.4052
 Red. masses --      1.9184                 1.3534                 1.4650
 Frc consts  --      2.1080                 1.5019                 1.6353
 IR Inten    --     21.8702                14.4098                32.3198

                     67                     68                     69
                      A                      A                      A
 Frequencies --   1400.6765              1403.0190              1412.2594
 Red. masses --      1.4204                 1.4397                 1.3702
 Frc consts  --      1.6419                 1.6697                 1.6102
 IR Inten    --      0.4191                 6.1841                16.9770

                     70                     71                     72
                      A                      A                      A
 Frequencies --   1419.2767              1427.3974              1428.7054
 Red. masses --      1.4924                 1.3171                 1.4213
 Frc consts  --      1.7713                 1.5811                 1.7093
 IR Inten    --     14.3468                 5.6761                 7.4380

                     73                     74                     75
                      A                      A                      A
 Frequencies --   1449.5713              1470.0382              1490.7332
 Red. masses --      1.3760                 2.8586                 1.1089
 Frc consts  --      1.7035                 3.6396                 1.4519
 IR Inten    --     22.1283                 0.3858                 9.5459

                     76                     77                     78
                      A                      A                      A
 Frequencies --   1505.5402              1505.8639              1511.3414
 Red. masses --      1.1511                 1.5753                 1.0535
 Frc consts  --      1.5373                 2.1047                 1.4178
 IR Inten    --     19.6143               133.4643                10.0381

                     79                     80                     81
                      A                      A                      A
 Frequencies --   1513.4558              1518.9024              1523.4335
 Red. masses --      1.0909                 1.2057                 1.1119
 Frc consts  --      1.4722                 1.6389                 1.5203
 IR Inten    --      2.3930                27.0015                 4.4033

                     82                     83                     84
                      A                      A                      A
 Frequencies --   1528.9390              1536.4779              1545.4742
 Red. masses --      1.1197                 1.4859                 1.1124
 Frc consts  --      1.5422                 2.0668                 1.5654
 IR Inten    --     26.7086               147.8268                 7.8895

                     85                     86                     87
                      A                      A                      A
 Frequencies --   1641.4069              1666.0804              1696.2769
 Red. masses --      6.6248                 4.4472                 1.2281
 Frc consts  --     10.5161                 7.2733                 2.0820
 IR Inten    --     33.1745                40.8183                47.5294

                     88                     89                     90
                      A                      A                      A
 Frequencies --   2970.8983              2989.2297              3013.4828
 Red. masses --      1.0694                 1.0684                 1.0663
 Frc consts  --      5.5610                 5.6247                 5.7051
 IR Inten    --     28.4790                52.8081                41.3187

                     91                     92                     93
                      A                      A                      A
 Frequencies --   3021.6489              3023.3235              3038.3451
 Red. masses --      1.0471                 1.0660                 1.0629
 Frc consts  --      5.6330                 5.7410                 5.7813
 IR Inten    --     31.3147                23.6656                19.4633

                     94                     95                     96
                      A                      A                      A
 Frequencies --   3040.5031              3059.3283              3065.4783
 Red. masses --      1.0613                 1.0887                 1.0677
 Frc consts  --      5.7808                 6.0037                 5.9114
 IR Inten    --     26.4977                58.8912               102.4432

                     97                     98                     99
                      A                      A                      A
 Frequencies --   3073.2002              3074.1859              3075.9198
 Red. masses --      1.0958                 1.0966                 1.0931
 Frc consts  --      6.0975                 6.1058                 6.0935
 IR Inten    --     49.0022                26.5216                19.5686

                    100                    101                    102
                      A                      A                      A
 Frequencies --   3080.4005              3082.3429              3088.9264
 Red. masses --      1.0933                 1.1035                 1.1053
 Frc consts  --      6.1123                 6.1770                 6.2136
 IR Inten    --     60.9550                 3.9453                97.0224

                    103                    104                    105
                      A                      A                      A
 Frequencies --   3153.6511              3158.5624              3178.6032
 Red. masses --      1.0974                 1.0974                 1.0898
 Frc consts  --      6.4306                 6.4502                 6.4871
 IR Inten    --      9.6241                 7.0598                20.6029

                    106                    107                    108
                      A                      A                      A
 Frequencies --   3227.9050              3533.3412              3629.2336
 Red. masses --      1.0936                 1.0483                 1.0969
 Frc consts  --      6.7137                 7.7107                 8.5123
 IR Inten    --      5.8559                 5.0651                 6.1415

 - Thermochemistry -
 -------------------
 Temperature   298.150 Kelvin.  Pressure   1.00000 Atm.
 Atom     1 has atomic number  6 and mass  12.00000

 Molecular mass:   235.16846 amu.
 Principal axes and moments of inertia in atomic units:
                           1         2         3
     Eigenvalues --  2742.345525337.031006349.08352
           X            0.99998   0.00556   0.00175
           Y           -0.00558   0.99991   0.01227
           Z           -0.00168  -0.01228   0.99992
 This molecule is an asymmetric top.
 Rotational symmetry number  1.
 Warning -- assumption of classical behavior for rotation
           may cause significant error
 Rotational temperatures (Kelvin)      0.03158     0.01623     0.01364
 Rotational constants (GHZ):           0.65810     0.33815     0.28425
 Zero-point vibrational energy     882070.6 (Joules/Mol)
                                  210.81992 (Kcal/Mol)
 Warning -- explicit consideration of  27 degrees of freedom as
           vibrations may cause significant error
 Vibrational temperatures:     33.75    37.63    78.13   128.29   158.58
          (Kelvin)            182.52   219.48   267.09   304.67   348.42
                              365.43   381.64   414.29   450.73   517.60
                              533.07   565.68   575.21   601.79   657.63
                              674.60   682.08   743.87   804.00   837.39
                              866.08   878.49   989.48  1042.64  1078.78
                             1089.57  1157.32  1198.99  1201.72  1232.51
                             1262.91  1271.81  1313.83  1358.01  1360.87
                             1397.10  1428.37  1473.07  1481.20  1526.45
                             1528.78  1532.29  1563.08  1579.33  1603.04
                             1659.50  1670.17  1684.88  1711.69  1750.38
                             1782.91  1787.68  1866.78  1876.58  1888.28
                             1894.34  1935.06  1959.26  1964.83  1974.64
                             1980.34  2015.26  2018.63  2031.93  2042.02
                             2053.71  2055.59  2085.61  2115.06  2144.83
                             2166.14  2166.60  2174.48  2177.53  2185.36
                             2191.88  2199.80  2210.65  2223.59  2361.62
                             2397.12  2440.56  4274.46  4300.83  4335.73
                             4347.48  4349.89  4371.50  4374.61  4401.69
                             4410.54  4421.65  4423.07  4425.56  4432.01
                             4434.80  4444.28  4537.40  4544.47  4573.30
                             4644.24  5083.69  5221.66

 Zero-point correction=                           0.335963 (Hartree/Particle)
 Thermal correction to Energy=                    0.352404
 Thermal correction to Enthalpy=                  0.353348
 Thermal correction to Gibbs Free Energy=         0.291158
 Sum of electronic and zero-point Energies=           -747.241527
 Sum of electronic and thermal Energies=              -747.225086
 Sum of electronic and thermal Enthalpies=            -747.224142
 Sum of electronic and thermal Free Energies=         -747.286332

                     E (Thermal)             CV                S
                      KCal/Mol        Cal/Mol-Kelvin    Cal/Mol-Kelvin
 Total                  221.137             64.241            130.889
 Electronic               0.000              0.000              0.000
 Translational            0.889              2.981             42.267
 Rotational               0.889              2.981             32.896
 Vibrational            219.359             58.279             55.725
 Vibration     1          0.593              1.985              6.317
 Vibration     2          0.593              1.985              6.102
 Vibration     3          0.596              1.976              4.654
 Vibration     4          0.602              1.957              3.678
 Vibration     5          0.606              1.941              3.265
 Vibration     6          0.611              1.926              2.993
 Vibration     7          0.619              1.900              2.640
 Vibration     8          0.632              1.859              2.271
 Vibration     9          0.643              1.823              2.028
 Vibration    10          0.658              1.776              1.787
 Vibration    11          0.665              1.756              1.703
 Vibration    12          0.671              1.737              1.627
 Vibration    13          0.685              1.696              1.486
 Vibration    14          0.701              1.648              1.345
 Vibration    15          0.734              1.555              1.123
 Vibration    16          0.743              1.533              1.078
 Vibration    17          0.760              1.485              0.988
 Vibration    18          0.766              1.471              0.963
 Vibration    19          0.781              1.431              0.898
 Vibration    20          0.815              1.345              0.775
 Vibration    21          0.826              1.319              0.741
 Vibration    22          0.831              1.308              0.726
 Vibration    23          0.872              1.212              0.617
 Vibration    24          0.914              1.120              0.526
 Vibration    25          0.939              1.070              0.482
 Vibration    26          0.960              1.028              0.446
 Vibration    27          0.970              1.009              0.432

                           ! Non-Optimized Parameters !
 Normal termination of Gaussian 16 at Sun Dec 13 12:47:26 2020.

 ----------------------------------------------------------------------
 # B3LYP/6-311++G(d,p) empiricaldispersion=gd3bj scf=xqc pop=npa geom=c
 heck
 ----------------------------------------------------------------------

 --------------------------------------
 CID_81575063_JID_7241_Energie_neutraal
 --------------------------------------
 Structure from the checkpoint file:  "JID_7241.chk"
 Charge =  0 Multiplicity = 1

 SCF Done:  E(RB3LYP) =  -747.784763348     A.U. after   14 cycles
 Normal termination of Gaussian 16 at Sun Dec 13 12:55:03 2020.

 ----------------------------------------------------------------------
 # B3LYP/6-311++G(d,p) empiricaldispersion=gd3bj scf=xqc pop=npa geom=c
 heck
 ----------------------------------------------------------------------

 ------------------------------------
 CID_81575063_JID_7241_Energie_kation
 ------------------------------------
 Structure from the checkpoint file:  "JID_7241.chk"
 Charge =  1 Multiplicity = 2

 SCF Done:  E(UB3LYP) =  -747.528958897     A.U. after   24 cycles
 Normal termination of Gaussian 16 at Sun Dec 13 13:13:34 2020.
 Gaussian 16:  ES64L-G16RevA.03 25-Dec-2016

 ----------------------------------------------------------------------
 # B3LYP/6-311++G(d,p) empiricaldispersion=gd3bj scf=xqc pop=npa geom=c
 heck
 ----------------------------------------------------------------------

 -----------------------------------
 CID_81575063_JID_7241_Energie_anion
 -----------------------------------
 Structure from the checkpoint file:  "JID_7241.chk"
 Charge = -1 Multiplicity = 2

                         Standard orientation:
 ---------------------------------------------------------------------
 Center     Atomic      Atomic             Coordinates (Angstroms)
 Number     Number       Type             X           Y           Z
 ---------------------------------------------------------------------
      1          6           0       -2.067215   -1.582332   -1.790835
      2          6           0       -2.068384   -0.498984   -0.746148
      3          6           0       -3.025828   -0.495184    0.281593
      4          6           0       -2.948282    0.532042    1.234725
      5          6           0       -1.954855    1.492654    1.143859
      6          6           0       -1.051962    1.402159    0.075526
      7          7           0       -1.113208    0.441546   -0.835348
      8          8           0       -0.080428    2.351464    0.017448
      9          6           0        0.921488    2.270149   -1.008122
     10          6           0        2.282713    1.845292   -0.438995
     11          7           0        2.467671    0.470479   -0.011301
     12          6           0        1.833016    0.097171    1.252208
     13          6           0        2.417226   -1.223041    1.761035
     14          6           0        2.235307   -2.322551    0.707892
     15          6           0        2.840806   -1.878787   -0.629007
     16          6           0        2.265666   -0.526600   -1.060298
     17          7           0       -3.974717   -1.527598    0.388322
     18          1           0       -2.012771   -2.576575   -1.328951
     19          1           0       -1.210326   -1.450341   -2.453878
     20          1           0       -2.979384   -1.561191   -2.405675
     21          1           0       -3.667748    0.566997    2.049897
     22          1           0       -1.862060    2.296092    1.865582
     23          1           0        0.585524    1.598480   -1.799134
     24          1           0        1.010362    3.284300   -1.414479
     25          1           0        3.025346    2.055834   -1.223808
     26          1           0        2.519568    2.499789    0.409065
     27          1           0        0.740135   -0.021044    1.160688
     28          1           0        2.010865    0.902286    1.974110
     29          1           0        1.927711   -1.502899    2.702323
     30          1           0        3.485964   -1.084360    1.969382
     31          1           0        2.686627   -3.263989    1.044355
     32          1           0        1.160606   -2.513818    0.571679
     33          1           0        3.929258   -1.783469   -0.523933
     34          1           0        2.647943   -2.625334   -1.409832
     35          1           0        2.774202   -0.174226   -1.966946
     36          1           0        1.196348   -0.646786   -1.310315
     37          1           0       -4.773599   -1.281140    0.961657
     38          1           0       -4.287529   -1.893216   -0.503683
 ---------------------------------------------------------------------

 SCF Done:  E(UB3LYP) =  -747.773442504     A.U. after   33 cycles
 SCF Done:  E(UB3LYP) =  -747.773442504     a.u. after    1 cycles

 The electronic state is 2-A.
 Alpha  occ. eigenvalues --  -19.05306 -14.20978 -14.20904 -14.20387 -10.15454
 Alpha  occ. eigenvalues --  -10.12630 -10.10802 -10.10790 -10.10729 -10.09521
 Alpha  occ. eigenvalues --  -10.09477 -10.08159 -10.07525 -10.07428 -10.07367
 Alpha  occ. eigenvalues --  -10.07344 -10.06339  -0.97515  -0.84477  -0.83507
 Alpha  occ. eigenvalues --   -0.80166  -0.71241  -0.69709  -0.66925  -0.66121
 Alpha  occ. eigenvalues --   -0.64688  -0.59844  -0.56523  -0.53470  -0.52476
 Alpha  occ. eigenvalues --   -0.51221  -0.50022  -0.45956  -0.43847  -0.42530
 Alpha  occ. eigenvalues --   -0.40525  -0.40419  -0.38399  -0.37311  -0.36160
 Alpha  occ. eigenvalues --   -0.35846  -0.34313  -0.33533  -0.33029  -0.32547
 Alpha  occ. eigenvalues --   -0.32079  -0.31638  -0.30119  -0.29601  -0.29433
 Alpha  occ. eigenvalues --   -0.28795  -0.27640  -0.27239  -0.25834  -0.24950
 Alpha  occ. eigenvalues --   -0.24369  -0.23950  -0.22596  -0.22561  -0.20108
 Alpha  occ. eigenvalues --   -0.17353  -0.16828  -0.11901  -0.09836   0.04261
 Alpha virt. eigenvalues --    0.05849   0.06761   0.06881   0.07207   0.07994
 Alpha virt. eigenvalues --    0.08258   0.08690   0.09335   0.09656   0.10348
 Alpha virt. eigenvalues --    0.10701   0.10807   0.11513   0.11761   0.12078

  Beta  occ. eigenvalues --  -19.05304 -14.20978 -14.20833 -14.20372 -10.15456
  Beta  occ. eigenvalues --  -10.12627 -10.10797 -10.10782 -10.10727 -10.09517
  Beta  occ. eigenvalues --  -10.09471 -10.08122 -10.07512 -10.07420 -10.07358
  Beta  occ. eigenvalues --  -10.07338 -10.06301  -0.97511  -0.84448  -0.83500
  Beta  occ. eigenvalues --   -0.80079  -0.71227  -0.69664  -0.66876  -0.66108
  Beta  occ. eigenvalues --   -0.64655  -0.59796  -0.56491  -0.53451  -0.52431
  Beta  occ. eigenvalues --   -0.51172  -0.49989  -0.45936  -0.43824  -0.42495
  Beta  occ. eigenvalues --   -0.40440  -0.40392  -0.38383  -0.37302  -0.36136
  Beta  occ. eigenvalues --   -0.35792  -0.34276  -0.33483  -0.33010  -0.32515
  Beta  occ. eigenvalues --   -0.32058  -0.31608  -0.30100  -0.29568  -0.29400
  Beta  occ. eigenvalues --   -0.28762  -0.27606  -0.27218  -0.25820  -0.24909
  Beta  occ. eigenvalues --   -0.24360  -0.23935  -0.22579  -0.22546  -0.20065
  Beta  occ. eigenvalues --   -0.17254  -0.16792  -0.11892  -0.09774
  Beta virt. eigenvalues --    0.05892   0.06838   0.07191   0.07239   0.07461
  Beta virt. eigenvalues --    0.08527   0.08704   0.08977   0.09333   0.09738
  Beta virt. eigenvalues --    0.10647   0.10825   0.11190   0.11668   0.11969

 Mulliken charges and spin densities:
               1          2
     1  C    2.759962  -3.309526
     2  C   -1.253254   1.257342
     3  C   -0.743428   0.298190
     4  C    1.001287  -0.899024
     5  C    0.178586  -0.220670
     6  C   -0.605846   0.262920
     7  N    0.043269   0.080564
     8  O   -0.009423  -0.004884
     9  C   -0.038524  -0.107504
    10  C   -0.076599  -0.130768
    11  N    0.111672   0.017388
    12  C   -0.526305   0.224494
    13  C    0.070561  -0.517024
    14  C   -0.323996   0.095580
    15  C    0.130491  -0.600862
    16  C   -0.542695   0.288084
    17  N   -0.280220  -0.028428
    18  H   -0.049203   0.225043
    19  H   -0.127135   0.271945
    20  H   -0.485864   0.651570
    21  H   -0.798219   0.985305
    22  H    0.046005   0.113240
    23  H    0.159018   0.052734
    24  H    0.023569   0.139005
    25  H    0.047555   0.084569
    26  H    0.144955   0.019693
    27  H    0.247344  -0.104701
    28  H    0.061735   0.089009
    29  H    0.036200   0.116034
    30  H    0.085525   0.036987
    31  H   -0.026054   0.204595
    32  H    0.117693   0.002409
    33  H    0.091745   0.032953
    34  H   -0.119322   0.274872
    35  H   -0.056754   0.201175
    36  H    0.479463  -0.388285
    37  H   -0.446035   0.705587
    38  H   -0.327761   0.580386
 Sum of Mulliken charges =  -1.00000   1.00000

 Dipole moment (field-independent basis, Debye):
    X=             10.1963    Y=              4.4795    Z=              0.3084  Tot=             11.1411
 Quadrupole moment (field-independent basis, Debye-Ang):
   XX=           -203.0234   YY=           -145.7371   ZZ=           -142.0150
   XY=            -12.5818   XZ=              3.3122   YZ=             -4.1631

 Summary of Natural Population Analysis:

                                       Natural Population
                Natural  -----------------------------------------------
    Atom  No    Charge         Core      Valence    Rydberg      Total
 -----------------------------------------------------------------------
      C    1   -0.30324      0.99964     2.29682    0.00678     3.30324
      C    2    0.09595      0.99950     1.89030    0.01424     2.90405
      C    3    0.05437      0.99943     1.93372    0.01248     2.94563
      C    4   -0.08885      0.99953     2.07917    0.01015     3.08885
      C    5   -0.13290      0.99951     2.12397    0.00941     3.13290
      C    6    0.25237      0.99944     1.73074    0.01746     2.74763
      N    7   -0.26924      0.99962     2.75976    0.00986     3.76924
      O    8   -0.28550      0.99986     3.27679    0.00886     4.28550
      C    9   -0.02672      0.99955     2.01638    0.01080     3.02672
      C   10   -0.08800      0.99961     2.07810    0.01029     3.08800
      N   11   -0.28574      0.99971     2.77257    0.01345     3.78574
      C   12   -0.08403      0.99961     2.07465    0.00978     3.08403
      C   13   -0.19152      0.99963     2.18413    0.00776     3.19152
      C   14   -0.19239      0.99963     2.18480    0.00795     3.19239
      C   15   -0.19258      0.99963     2.18405    0.00891     3.19258
      C   16   -0.09135      0.99961     2.08071    0.01102     3.09135
      N   17   -0.39777      0.99972     2.88713    0.01092     3.89777
      H   18    0.10668      0.00000     0.39199    0.00133     0.39332
      H   19    0.10832      0.00000     0.39026    0.00143     0.39168
      H   20    0.10580      0.00000     0.39213    0.00207     0.39420
      H   21    0.10332      0.00000     0.39535    0.00133     0.39668
      H   22    0.10553      0.00000     0.39334    0.00114     0.39447
      H   23    0.10288      0.00000     0.39531    0.00182     0.39712
      H   24    0.08533      0.00000     0.41343    0.00124     0.41467
      H   25    0.09207      0.00000     0.40678    0.00115     0.40793
      H   26    0.09469      0.00000     0.40413    0.00118     0.40531
      H   27    0.08706      0.00000     0.41018    0.00276     0.41294
      H   28    0.09437      0.00000     0.40451    0.00111     0.40563
      H   29    0.09823      0.00000     0.40090    0.00087     0.40177
      H   30    0.09256      0.00000     0.40585    0.00159     0.40744
      H   31    0.09653      0.00000     0.40256    0.00091     0.40347
      H   32    0.09745      0.00000     0.40097    0.00158     0.40255
      H   33    0.09259      0.00000     0.40591    0.00150     0.40741
      H   34    0.09880      0.00000     0.40037    0.00083     0.40120
      H   35    0.09226      0.00000     0.40667    0.00108     0.40774
      H   36    0.09353      0.00000     0.40389    0.00258     0.40647
      H   37    0.18876      0.00000     0.30155    0.00969     0.31124
      H   38    0.19039      0.00000     0.30335    0.00626     0.30961
 =======================================================================
   * Total *   -0.00000     16.99322    46.78320    0.22357    64.00000

 Normal termination of Gaussian 16 at Sun Dec 13 13:39:24 2020.
