 Gaussian 16, Revision A.03,

 -----------------------------------------------------------
 # opt freq B3LYP/6-31G(d) empiricaldispersion=gd3bj scf=xqc
 -----------------------------------------------------------

 ------------------------------
 CID_80398081_JID_8042_neutraal
 ------------------------------
 Symbolic Z-matrix:
 Charge =  0 Multiplicity = 1

 SCF Done:  E(RB3LYP) =  -823.948559352     A.U. after   15 cycles
 SCF Done:  E(RB3LYP) =  -823.955320365     A.U. after   13 cycles
 SCF Done:  E(RB3LYP) =  -823.945820735     A.U. after   15 cycles
 SCF Done:  E(RB3LYP) =  -823.952331062     A.U. after   13 cycles
 SCF Done:  E(RB3LYP) =  -823.956486722     A.U. after   11 cycles
 SCF Done:  E(RB3LYP) =  -823.957500814     A.U. after   12 cycles
 SCF Done:  E(RB3LYP) =  -823.957698717     A.U. after   11 cycles
 SCF Done:  E(RB3LYP) =  -823.957951468     A.U. after   12 cycles
 SCF Done:  E(RB3LYP) =  -823.957958126     A.U. after   11 cycles
 SCF Done:  E(RB3LYP) =  -823.958042295     A.U. after   11 cycles
 SCF Done:  E(RB3LYP) =  -823.958101651     A.U. after   10 cycles
 SCF Done:  E(RB3LYP) =  -823.958103157     A.U. after    8 cycles
 SCF Done:  E(RB3LYP) =  -823.958103601     A.U. after    8 cycles
 SCF Done:  E(RB3LYP) =  -823.958103819     A.U. after    7 cycles
 SCF Done:  E(RB3LYP) =  -823.958103899     A.U. after    7 cycles
 Optimization completed.
    -- Stationary point found.
 Normal termination of Gaussian 16 at Fri Dec 11 18:46:29 2020.

 --------------------------------------------------------------------
 #N Geom=AllCheck Guess=TCheck SCRF=Check GenChk RB3LYP/6-31G(d) Freq
 --------------------------------------------------------------------

 Structure from the checkpoint file:  "JID_8042.chk"
 ------------------------------
 CID_80398081_JID_8042_neutraal
 ------------------------------
 Charge =  0 Multiplicity = 1

 SCF Done:  E(RB3LYP) =  -823.958103899     A.U. after    1 cycles

  Exact polarizability: 177.370 -15.830 156.640  -0.362   1.503 140.714
 Approx polarizability: 226.176 -17.803 213.049  -3.534   4.228 236.516

                      1                      2                      3
                      A                      A                      A
 Frequencies --     19.8400                27.3758                41.9145
 Red. masses --      4.5685                 4.2188                 4.6793
 Frc consts  --      0.0011                 0.0019                 0.0048
 IR Inten    --      0.1623                 0.4428                 0.0378

                      4                      5                      6
                      A                      A                      A
 Frequencies --     58.0310                68.4671                73.4642
 Red. masses --      4.1055                 3.9096                 2.5502
 Frc consts  --      0.0081                 0.0108                 0.0081
 IR Inten    --      0.2771                 1.1887                 0.5450

                      7                      8                      9
                      A                      A                      A
 Frequencies --     89.2627               112.2700               156.1990
 Red. masses --      2.5752                 4.0942                 2.4670
 Frc consts  --      0.0121                 0.0304                 0.0355
 IR Inten    --      1.6574                 2.3893                 0.6739

                     10                     11                     12
                      A                      A                      A
 Frequencies --    169.9956               172.6621               192.9981
 Red. masses --      5.3395                 4.1555                 3.0550
 Frc consts  --      0.0909                 0.0730                 0.0670
 IR Inten    --      0.5876                 1.5960                 3.1226

                     13                     14                     15
                      A                      A                      A
 Frequencies --    215.6928               225.1786               231.8332
 Red. masses --      3.0654                 1.1591                 3.0984
 Frc consts  --      0.0840                 0.0346                 0.0981
 IR Inten    --      2.7035                 0.8443                 2.6208

                     16                     17                     18
                      A                      A                      A
 Frequencies --    262.2712               284.3723               290.1696
 Red. masses --      1.2906                 1.1459                 2.0618
 Frc consts  --      0.0523                 0.0546                 0.1023
 IR Inten    --      1.8122                 1.0294                 1.9494

                     19                     20                     21
                      A                      A                      A
 Frequencies --    304.2325               321.2908               356.6528
 Red. masses --      2.5721                 2.2986                 2.7798
 Frc consts  --      0.1403                 0.1398                 0.2083
 IR Inten    --      2.5824                 3.3304                 1.7280

                     22                     23                     24
                      A                      A                      A
 Frequencies --    383.0562               436.9662               446.9325
 Red. masses --      5.0793                 2.3682                 2.7580
 Frc consts  --      0.4391                 0.2664                 0.3246
 IR Inten    --      1.5779                 4.5213                 7.2276

                     25                     26                     27
                      A                      A                      A
 Frequencies --    466.6735               499.6240               547.9754
 Red. masses --      2.2548                 2.4000                 3.2636
 Frc consts  --      0.2893                 0.3530                 0.5774
 IR Inten    --      2.1741                 2.4853                12.4409

                     28                     29                     30
                      A                      A                      A
 Frequencies --    605.1592               612.1396               612.7328
 Red. masses --      2.9887                 1.6935                 2.8167
 Frc consts  --      0.6449                 0.3739                 0.6231
 IR Inten    --     20.2122                52.9326                25.2890

                     31                     32                     33
                      A                      A                      A
 Frequencies --    647.4799               734.8817               740.0072
 Red. masses --      4.0785                 4.0253                 1.4795
 Frc consts  --      1.0074                 1.2808                 0.4773
 IR Inten    --     12.4808                24.2686                38.7798

                     34                     35                     36
                      A                      A                      A
 Frequencies --    747.8290               757.7965               774.0937
 Red. masses --      2.2727                 3.4701                 2.4131
 Frc consts  --      0.7488                 1.1741                 0.8519
 IR Inten    --      2.2162                31.3809                32.8540

                     37                     38                     39
                      A                      A                      A
 Frequencies --    778.3648               818.4999               847.0323
 Red. masses --      1.5715                 1.2714                 1.7070
 Frc consts  --      0.5610                 0.5018                 0.7216
 IR Inten    --     52.8410                15.8369                10.5682

                     40                     41                     42
                      A                      A                      A
 Frequencies --    868.5437               871.7160               908.1329
 Red. masses --      1.3111                 2.5153                 6.1072
 Frc consts  --      0.5827                 1.1261                 2.9675
 IR Inten    --      0.4712                10.8828                 6.2339

                     43                     44                     45
                      A                      A                      A
 Frequencies --    935.8778               940.2633               965.7699
 Red. masses --      2.3846                 1.6355                 2.6049
 Frc consts  --      1.2306                 0.8519                 1.4315
 IR Inten    --      9.4420                11.8630                12.5070

                     46                     47                     48
                      A                      A                      A
 Frequencies --    988.1426              1030.9212              1042.3104
 Red. masses --      1.8057                 2.0128                 1.3624
 Frc consts  --      1.0388                 1.2604                 0.8721
 IR Inten    --      1.7388                14.8208                24.1546

                     49                     50                     51
                      A                      A                      A
 Frequencies --   1054.8059              1079.1211              1094.5782
 Red. masses --      1.7766                 1.9186                 2.0550
 Frc consts  --      1.1646                 1.3163                 1.4506
 IR Inten    --      5.1414                18.1857                 1.7911

                     52                     53                     54
                      A                      A                      A
 Frequencies --   1098.9206              1118.2425              1135.1423
 Red. masses --      2.3232                 2.7059                 2.6905
 Frc consts  --      1.6530                 1.9936                 2.0426
 IR Inten    --     11.3604                18.0843                26.1333

                     55                     56                     57
                      A                      A                      A
 Frequencies --   1146.3432              1149.9744              1154.1518
 Red. masses --      1.7223                 1.7399                 2.1905
 Frc consts  --      1.3334                 1.3556                 1.7192
 IR Inten    --     24.7678                 7.7436                38.9347

                     58                     59                     60
                      A                      A                      A
 Frequencies --   1177.6541              1179.2511              1185.0992
 Red. masses --      1.6178                 1.6425                 1.8141
 Frc consts  --      1.3220                 1.3457                 1.5012
 IR Inten    --     25.3922                29.7015                20.1607

                     61                     62                     63
                      A                      A                      A
 Frequencies --   1224.5932              1231.1184              1257.8831
 Red. masses --      1.8536                 2.1654                 2.1369
 Frc consts  --      1.6377                 1.9337                 1.9921
 IR Inten    --     18.9530                91.5495                 8.6861

                     64                     65                     66
                      A                      A                      A
 Frequencies --   1268.6955              1288.0831              1304.3336
 Red. masses --      1.3658                 2.2330                 1.6993
 Frc consts  --      1.2953                 2.1828                 1.7033
 IR Inten    --     29.3317               127.1397                 4.7832

                     67                     68                     69
                      A                      A                      A
 Frequencies --   1308.7623              1331.9580              1368.3222
 Red. masses --      1.3965                 1.4250                 1.8687
 Frc consts  --      1.4093                 1.4896                 2.0614
 IR Inten    --     68.0920                 0.8000                49.2930

                     70                     71                     72
                      A                      A                      A
 Frequencies --   1384.0417              1404.1586              1407.6925
 Red. masses --      1.3815                 1.3517                 1.4196
 Frc consts  --      1.5592                 1.5703                 1.6574
 IR Inten    --      6.2429                12.1192                18.8873

                     73                     74                     75
                      A                      A                      A
 Frequencies --   1420.1648              1428.5936              1431.6233
 Red. masses --      1.4176                 1.3046                 1.6235
 Frc consts  --      1.6845                 1.5688                 1.9604
 IR Inten    --      8.4538                 2.6494                11.6063

                     76                     77                     78
                      A                      A                      A
 Frequencies --   1435.0960              1448.6769              1481.3373
 Red. masses --      1.6919                 1.2999                 1.1549
 Frc consts  --      2.0530                 1.6073                 1.4932
 IR Inten    --      3.4986                 9.2226                 0.5073

                     79                     80                     81
                      A                      A                      A
 Frequencies --   1483.7666              1490.3105              1496.2941
 Red. masses --      1.1794                 1.0964                 1.2877
 Frc consts  --      1.5299                 1.4347                 1.6986
 IR Inten    --      3.3462                 9.2838                14.8831

                     82                     83                     84
                      A                      A                      A
 Frequencies --   1500.7297              1509.4714              1511.2309
 Red. masses --      1.1529                 1.3378                 1.0759
 Frc consts  --      1.5299                 1.7960                 1.4478
 IR Inten    --     23.2703                17.3544                11.1502

                     85                     86                     87
                      A                      A                      A
 Frequencies --   1514.2594              1520.9148              1527.8721
 Red. masses --      1.1112                 1.0911                 1.0495
 Frc consts  --      1.5012                 1.4870                 1.4435
 IR Inten    --     27.2255                 1.6357                 3.9650

                     88                     89                     90
                      A                      A                      A
 Frequencies --   1543.3941              1548.0503              1554.5077
 Red. masses --      1.0548                 1.0632                 4.5123
 Frc consts  --      1.4804                 1.5012                 6.4244
 IR Inten    --      5.3526                11.8782                12.6597

                     91                     92                     93
                      A                      A                      A
 Frequencies --   1560.1734              1560.7893              1651.3331
 Red. masses --      1.0673                 1.0724                 6.1821
 Frc consts  --      1.5307                 1.5392                 9.9325
 IR Inten    --      6.7776                 8.6622                 1.1060

                     94                     95                     96
                      A                      A                      A
 Frequencies --   1772.8086              2940.5305              2988.5148
 Red. masses --      7.7277                 1.0619                 1.0806
 Frc consts  --     14.3094                 5.4099                 5.6860
 IR Inten    --    331.8433                85.3287                61.9934

                     97                     98                     99
                      A                      A                      A
 Frequencies --   3010.3268              3019.9727              3032.0512
 Red. masses --      1.0394                 1.0624                 1.0688
 Frc consts  --      5.5495                 5.7085                 5.7891
 IR Inten    --     58.4653                37.2507                 7.6626

                    100                    101                    102
                      A                      A                      A
 Frequencies --   3045.5856              3045.7486              3059.0940
 Red. masses --      1.0746                 1.0765                 1.0870
 Frc consts  --      5.8729                 5.8839                 5.9931
 IR Inten    --     37.0929                43.0853                81.3022

                    103                    104                    105
                      A                      A                      A
 Frequencies --   3061.0603              3068.0324              3073.0279
 Red. masses --      1.0977                 1.0707                 1.0437
 Frc consts  --      6.0601                 5.9380                 5.8072
 IR Inten    --     50.5484                56.8460                10.2146

                    106                    107                    108
                      A                      A                      A
 Frequencies --   3084.6537              3097.8634              3113.2534
 Red. masses --      1.0896                 1.1017                 1.1029
 Frc consts  --      6.1083                 6.2290                 6.2981
 IR Inten    --     39.5785                49.8575                34.5678

                    109                    110                    111
                      A                      A                      A
 Frequencies --   3120.8917              3147.6893              3151.9469
 Red. masses --      1.0943                 1.0994                 1.0915
 Frc consts  --      6.2799                 6.4177                 6.3892
 IR Inten    --     28.0033                11.0802                 3.9833

                    112                    113                    114
                      A                      A                      A
 Frequencies --   3160.8574              3264.2413              3276.6698
 Red. masses --      1.1009                 1.0929                 1.0959
 Frc consts  --      6.4803                 6.8611                 6.9323
 IR Inten    --     10.1124                 4.7338                 0.7991

                    115                    116                    117
                      A                      A                      A
 Frequencies --   3306.3250              3491.0295              3578.9115
 Red. masses --      1.1049                 1.0730                 1.0755
 Frc consts  --      7.1163                 7.7044                 8.1163
 IR Inten    --      0.8638                 3.9107                19.8801

 - Thermochemistry -
 -------------------
 Temperature   298.150 Kelvin.  Pressure   1.00000 Atm.
 Atom     1 has atomic number  6 and mass  12.00000

 Molecular mass:   253.17903 amu.
 Principal axes and moments of inertia in atomic units:
                           1         2         3
     Eigenvalues --  3146.226307596.871709234.66357
           X            0.99999   0.00420  -0.00337
           Y           -0.00423   0.99996  -0.00793
           Z            0.00334   0.00794   0.99996
 This molecule is an asymmetric top.
 Rotational symmetry number  1.
 Warning -- assumption of classical behavior for rotation
           may cause significant error
 Rotational temperatures (Kelvin)      0.02753     0.01140     0.00938
 Rotational constants (GHZ):           0.57362     0.23756     0.19543
 Zero-point vibrational energy     948433.5 (Joules/Mol)
                                  226.68105 (Kcal/Mol)
 Warning -- explicit consideration of  30 degrees of freedom as
           vibrations may cause significant error
 Vibrational temperatures:     28.55    39.39    60.31    83.49    98.51
          (Kelvin)            105.70   128.43   161.53   224.74   244.59
                              248.42   277.68   310.33   323.98   333.56
                              377.35   409.15   417.49   437.72   462.27
                              513.14   551.13   628.70   643.04   671.44
                              718.85   788.41   870.69   880.73   881.59
                              931.58  1057.33  1064.71  1075.96  1090.30
                             1113.75  1119.89  1177.64  1218.69  1249.64
                             1254.20  1306.60  1346.52  1352.83  1389.53
                             1421.72  1483.27  1499.65  1517.63  1552.61
                             1574.85  1581.10  1608.90  1633.22  1649.33
                             1654.56  1660.57  1694.38  1696.68  1705.09
                             1761.92  1771.30  1809.81  1825.37  1853.26
                             1876.65  1883.02  1916.39  1968.71  1991.33
                             2020.27  2025.36  2043.30  2055.43  2059.79
                             2064.78  2084.32  2131.31  2134.81  2144.22
                             2152.83  2159.22  2171.79  2174.32  2178.68
                             2188.26  2198.27  2220.60  2227.30  2236.59
                             2244.74  2245.63  2375.90  2550.68  4230.77
                             4299.81  4331.19  4345.07  4362.45  4381.92
                             4382.15  4401.35  4404.18  4414.21  4421.40
                             4438.13  4457.13  4479.28  4490.27  4528.82
                             4534.95  4547.77  4696.52  4714.40  4757.06
                             5022.81  5149.26

 Zero-point correction=                           0.361239 (Hartree/Particle)
 Thermal correction to Energy=                    0.380810
 Thermal correction to Enthalpy=                  0.381754
 Thermal correction to Gibbs Free Energy=         0.311404
 Sum of electronic and zero-point Energies=           -823.596865
 Sum of electronic and thermal Energies=              -823.577294
 Sum of electronic and thermal Enthalpies=            -823.576350
 Sum of electronic and thermal Free Energies=         -823.646700

                     E (Thermal)             CV                S
                      KCal/Mol        Cal/Mol-Kelvin    Cal/Mol-Kelvin
 Total                  238.962             72.489            148.065
 Electronic               0.000              0.000              0.000
 Translational            0.889              2.981             42.487
 Rotational               0.889              2.981             33.756
 Vibrational            237.185             66.527             71.822
 Vibration     1          0.593              1.986              6.650
 Vibration     2          0.593              1.984              6.011
 Vibration     3          0.595              1.980              5.166
 Vibration     4          0.596              1.974              4.523
 Vibration     5          0.598              1.969              4.197
 Vibration     6          0.599              1.967              4.058
 Vibration     7          0.602              1.957              3.676
 Vibration     8          0.607              1.939              3.229
 Vibration     9          0.620              1.896              2.595
 Vibration    10          0.625              1.879              2.436
 Vibration    11          0.626              1.876              2.406
 Vibration    12          0.635              1.850              2.199
 Vibration    13          0.645              1.817              1.995
 Vibration    14          0.650              1.803              1.917
 Vibration    15          0.653              1.792              1.865
 Vibration    16          0.670              1.742              1.647
 Vibration    17          0.683              1.703              1.507
 Vibration    18          0.686              1.692              1.473
 Vibration    19          0.695              1.666              1.394
 Vibration    20          0.707              1.633              1.304
 Vibration    21          0.732              1.562              1.137
 Vibration    22          0.752              1.506              1.027
 Vibration    23          0.797              1.390              0.836
 Vibration    24          0.806              1.368              0.805
 Vibration    25          0.824              1.324              0.747
 Vibration    26          0.855              1.251              0.659
 Vibration    27          0.903              1.144              0.548
 Vibration    28          0.964              1.021              0.441
 Vibration    29          0.971              1.006              0.429
 Vibration    30          0.972              1.005              0.428

                           ! Non-Optimized Parameters !
 Normal termination of Gaussian 16 at Fri Dec 11 19:04:52 2020.

 ----------------------------------------------------------------------
 # B3LYP/6-311++G(d,p) empiricaldispersion=gd3bj scf=xqc pop=npa geom=c
 heck
 ----------------------------------------------------------------------

 --------------------------------------
 CID_80398081_JID_8042_Energie_neutraal
 --------------------------------------
 Structure from the checkpoint file:  "JID_8042.chk"
 Charge =  0 Multiplicity = 1

 SCF Done:  E(RB3LYP) =  -824.197383470     A.U. after   16 cycles
 Normal termination of Gaussian 16 at Fri Dec 11 19:12:59 2020.

 ----------------------------------------------------------------------
 # B3LYP/6-311++G(d,p) empiricaldispersion=gd3bj scf=xqc pop=npa geom=c
 heck
 ----------------------------------------------------------------------

 ------------------------------------
 CID_80398081_JID_8042_Energie_kation
 ------------------------------------
 Structure from the checkpoint file:  "JID_8042.chk"
 Charge =  1 Multiplicity = 2

 SCF Done:  E(UB3LYP) =  -823.929416623     A.U. after   29 cycles
 Normal termination of Gaussian 16 at Fri Dec 11 19:32:49 2020.
 Gaussian 16:  ES64L-G16RevA.03 25-Dec-2016

 ----------------------------------------------------------------------
 # B3LYP/6-311++G(d,p) empiricaldispersion=gd3bj scf=xqc pop=npa geom=c
 heck
 ----------------------------------------------------------------------

 -----------------------------------
 CID_80398081_JID_8042_Energie_anion
 -----------------------------------
 Structure from the checkpoint file:  "JID_8042.chk"
 Charge = -1 Multiplicity = 2

                         Standard orientation:
 ---------------------------------------------------------------------
 Center     Atomic      Atomic             Coordinates (Angstroms)
 Number     Number       Type             X           Y           Z
 ---------------------------------------------------------------------
      1          6           0        0.239849    0.129104    1.438046
      2          6           0        0.539923   -1.185645    0.707230
      3          6           0        0.031649   -1.110868   -0.752393
      4          8           0        0.773645   -0.860214   -1.695460
      5          7           0       -1.290855   -1.402615   -0.990793
      6          6           0       -2.401106   -1.556271   -0.057346
      7          6           0       -3.199448   -0.309997    0.152986
      8          6           0       -3.557297    0.416887    1.249919
      9          6           0       -4.356479    1.511433    0.774368
     10          6           0       -4.424177    1.369215   -0.576264
     11          8           0       -3.729533    0.261291   -0.973192
     12          7           0        1.924534   -1.599634    0.826932
     13          6           0        2.230221   -2.846080    0.149620
     14          6           0        3.028665   -0.644962    0.879465
     15          6           0        3.520810    0.041453   -0.417678
     16          6           0        2.823249    1.346929   -0.804565
     17          7           0        3.066395    2.410459    0.174587
     18          6           0        2.359524    3.639797   -0.160381
     19          1           0        0.735763    0.977294    0.960442
     20          1           0        0.579785    0.062320    2.476355
     21          1           0       -0.833046    0.334899    1.434207
     22          1           0       -0.045199   -1.975129    1.203993
     23          1           0       -1.543955   -1.265613   -1.963041
     24          1           0       -3.050132   -2.351852   -0.445937
     25          1           0       -2.028457   -1.899352    0.908565
     26          1           0       -3.287950    0.200435    2.274402
     27          1           0       -4.810732    2.294989    1.363897
     28          1           0       -4.893744    1.934305   -1.366305
     29          1           0        2.296497   -2.760030   -0.945378
     30          1           0        3.182186   -3.237999    0.526273
     31          1           0        1.450001   -3.583322    0.380941
     32          1           0        2.794177    0.106058    1.641558
     33          1           0        3.872502   -1.212584    1.293025
     34          1           0        4.588138    0.264762   -0.289029
     35          1           0        3.429339   -0.662159   -1.250018
     36          1           0        3.235935    1.691345   -1.762288
     37          1           0        1.753357    1.164371   -0.985726
     38          1           0        2.755788    2.098667    1.092688
     39          1           0        1.269649    3.513551   -0.309603
     40          1           0        2.515112    4.383620    0.628539
     41          1           0        2.769280    4.049371   -1.091472
 ---------------------------------------------------------------------

 SCF Done:  E(UB3LYP) =  -824.187655902     A.U. after   33 cycles
 SCF Done:  E(UB3LYP) =  -824.187655901     a.u. after    1 cycles

 The electronic state is 2-A.
 Alpha  occ. eigenvalues --  -19.10091 -18.99630 -14.24655 -14.21256 -14.21000
 Alpha  occ. eigenvalues --  -10.17840 -10.13787 -10.13371 -10.13333 -10.12147
 Alpha  occ. eigenvalues --  -10.10449 -10.10275 -10.09387 -10.09292 -10.08466
 Alpha  occ. eigenvalues --  -10.08241 -10.07551 -10.06949  -1.02509  -0.94882
 Alpha  occ. eigenvalues --   -0.83392  -0.83290  -0.81530  -0.71466  -0.69183
 Alpha  occ. eigenvalues --   -0.68394  -0.66858  -0.61170  -0.60660  -0.57316
 Alpha  occ. eigenvalues --   -0.56774  -0.53824  -0.51691  -0.49625  -0.47271
 Alpha  occ. eigenvalues --   -0.45322  -0.44662  -0.42172  -0.41205  -0.40420
 Alpha  occ. eigenvalues --   -0.38515  -0.37778  -0.37288  -0.36368  -0.35464
 Alpha  occ. eigenvalues --   -0.35140  -0.34413  -0.33239  -0.32891  -0.32416
 Alpha  occ. eigenvalues --   -0.31995  -0.31066  -0.30742  -0.30264  -0.29417
 Alpha  occ. eigenvalues --   -0.28839  -0.28691  -0.28139  -0.27297  -0.26255
 Alpha  occ. eigenvalues --   -0.26108  -0.24997  -0.23906  -0.19600  -0.17601
 Alpha  occ. eigenvalues --   -0.16882  -0.14307  -0.13929  -0.11457   0.03951
 Alpha virt. eigenvalues --    0.06070   0.06338   0.06861   0.07197   0.07952
 Alpha virt. eigenvalues --    0.08204   0.08613   0.08737   0.09261   0.09733
 Alpha virt. eigenvalues --    0.10086   0.10544   0.10998   0.11110   0.11820

  Beta  occ. eigenvalues --  -19.10075 -18.99626 -14.24644 -14.21256 -14.20994
  Beta  occ. eigenvalues --  -10.17835 -10.13777 -10.13354 -10.13295 -10.12131
  Beta  occ. eigenvalues --  -10.10441 -10.10267 -10.09375 -10.09291 -10.08455
  Beta  occ. eigenvalues --  -10.08214 -10.07526 -10.06947  -1.02480  -0.94872
  Beta  occ. eigenvalues --   -0.83371  -0.83275  -0.81521  -0.71432  -0.69152
  Beta  occ. eigenvalues --   -0.68360  -0.66841  -0.61150  -0.60604  -0.57282
  Beta  occ. eigenvalues --   -0.56740  -0.53799  -0.51653  -0.49604  -0.47221
  Beta  occ. eigenvalues --   -0.45282  -0.44619  -0.42133  -0.41172  -0.40381
  Beta  occ. eigenvalues --   -0.38495  -0.37752  -0.37244  -0.36351  -0.35431
  Beta  occ. eigenvalues --   -0.35112  -0.34392  -0.33210  -0.32855  -0.32400
  Beta  occ. eigenvalues --   -0.31956  -0.31030  -0.30721  -0.30240  -0.29402
  Beta  occ. eigenvalues --   -0.28819  -0.28661  -0.28118  -0.27276  -0.26231
  Beta  occ. eigenvalues --   -0.26096  -0.24982  -0.23895  -0.19560  -0.17581
  Beta  occ. eigenvalues --   -0.16853  -0.14256  -0.13905  -0.11447
  Beta virt. eigenvalues --    0.06037   0.06608   0.06793   0.07422   0.07593
  Beta virt. eigenvalues --    0.08345   0.08471   0.08778   0.09272   0.09458
  Beta virt. eigenvalues --    0.09958   0.10404   0.10602   0.11242   0.11284

 Mulliken charges and spin densities:
               1          2
     1  C    0.011471  -0.586002
     2  C    0.020653  -0.033380
     3  C   -0.716545   0.159196
     4  O   -0.264647  -0.003161
     5  N   -0.106421   0.071639
     6  C    3.433657  -4.234720
     7  C    0.902852  -1.002872
     8  C   -3.603369   4.112562
     9  C    2.538837  -3.053152
    10  C   -0.981639   1.093887
    11  O   -0.054319   0.048729
    12  N    0.185549   0.045310
    13  C    0.030869  -0.300381
    14  C   -0.288295  -0.020458
    15  C   -0.318839  -0.137704
    16  C   -0.267754   0.013376
    17  N   -0.119454   0.005049
    18  C   -0.152885  -0.172263
    19  H   -0.147981   0.263302
    20  H   -0.298055   0.494227
    21  H    1.204515  -1.157466
    22  H   -0.051418   0.302432
    23  H    0.186983   0.103577
    24  H   -0.746119   0.966061
    25  H   -0.167775   0.343037
    26  H   -1.361592   1.575078
    27  H   -0.555847   0.728978
    28  H   -0.414139   0.592731
    29  H    0.114004   0.030250
    30  H    0.055828   0.072659
    31  H   -0.143392   0.276810
    32  H    0.087651   0.024278
    33  H    0.027014   0.142058
    34  H    0.137875  -0.002974
    35  H    0.152537   0.004218
    36  H    0.131977   0.030080
    37  H    0.211453  -0.034418
    38  H    0.156643   0.034066
    39  H    0.061203   0.059963
    40  H    0.021903   0.108113
    41  H    0.087010   0.037286
 Sum of Mulliken charges =  -1.00000   1.00000

 Dipole moment (field-independent basis, Debye):
    X=              6.1926    Y=              1.4829    Z=             -3.4186  Tot=              7.2274
 Quadrupole moment (field-independent basis, Debye-Ang):
   XX=           -194.1152   YY=           -161.9817   ZZ=           -156.9587
   XY=             -3.3826   XZ=             11.5007   YZ=              0.3561

 Summary of Natural Population Analysis:

                                       Natural Population
                Natural  -----------------------------------------------
    Atom  No    Charge         Core      Valence    Rydberg      Total
 -----------------------------------------------------------------------
      C    1   -0.29127      0.99963     2.28455    0.00709     3.29127
      C    2   -0.03900      0.99954     2.02489    0.01457     3.03900
      C    3    0.34304      0.99963     1.63282    0.02451     2.65696
      O    4   -0.33001      0.99987     3.32394    0.00619     4.33001
      N    5   -0.31506      0.99967     2.80458    0.01081     3.81506
      C    6   -0.11127      0.99956     2.09881    0.01290     3.11127
      C    7    0.14325      0.99946     1.84181    0.01548     2.85675
      C    8   -0.14410      0.99949     2.13536    0.00925     3.14410
      C    9   -0.14835      0.99956     2.13853    0.01026     3.14835
      C   10    0.06271      0.99950     1.92473    0.01306     2.93729
      O   11   -0.23853      0.99986     3.23027    0.00840     4.23853
      N   12   -0.28004      0.99971     2.76600    0.01432     3.78004
      C   13   -0.17877      0.99964     2.17083    0.00830     3.17877
      C   14   -0.08107      0.99960     2.06911    0.01236     3.08107
      C   15   -0.20511      0.99961     2.19783    0.00767     3.20511
      C   16   -0.09123      0.99962     2.08157    0.01004     3.09123
      N   17   -0.34111      0.99975     2.83055    0.01080     3.84111
      C   18   -0.17792      0.99967     2.17118    0.00707     3.17792
      H   19    0.09831      0.00000     0.39970    0.00199     0.40169
      H   20    0.10494      0.00000     0.39353    0.00153     0.39506
      H   21    0.10956      0.00000     0.38858    0.00186     0.39044
      H   22    0.10092      0.00000     0.39632    0.00276     0.39908
      H   23    0.19464      0.00000     0.30282    0.00254     0.30536
      H   24    0.10860      0.00000     0.38901    0.00238     0.39140
      H   25    0.11258      0.00000     0.38482    0.00260     0.38742
      H   26    0.11504      0.00000     0.38200    0.00296     0.38496
      H   27    0.11090      0.00000     0.38767    0.00143     0.38910
      H   28    0.09528      0.00000     0.40356    0.00116     0.40472
      H   29    0.09030      0.00000     0.40841    0.00130     0.40970
      H   30    0.09121      0.00000     0.40800    0.00079     0.40879
      H   31    0.09590      0.00000     0.40305    0.00105     0.40410
      H   32    0.09134      0.00000     0.40736    0.00130     0.40866
      H   33    0.09303      0.00000     0.40588    0.00109     0.40697
      H   34    0.09423      0.00000     0.40446    0.00132     0.40577
      H   35    0.10819      0.00000     0.39091    0.00090     0.39181
      H   36    0.08898      0.00000     0.40988    0.00114     0.41102
      H   37    0.09153      0.00000     0.40658    0.00189     0.40847
      H   38    0.16785      0.00000     0.32823    0.00392     0.33215
      H   39    0.08034      0.00000     0.41790    0.00176     0.41966
      H   40    0.09198      0.00000     0.40708    0.00094     0.40802
      H   41    0.08817      0.00000     0.41066    0.00117     0.41183
 =======================================================================
   * Total *    0.00000     17.99338    50.76376    0.24285    69.00000

 Normal termination of Gaussian 16 at Fri Dec 11 19:55:44 2020.
