 Gaussian 16, Revision A.03,

 -----------------------------------------------------------
 # opt freq B3LYP/6-31G(d) empiricaldispersion=gd3bj scf=xqc
 -----------------------------------------------------------

 -----------------------------
 CID_14494371_JID_129_neutraal
 -----------------------------
 Symbolic Z-matrix:
 Charge =  0 Multiplicity = 1

 SCF Done:  E(RB3LYP) =  -828.560108327     A.U. after   15 cycles
 SCF Done:  E(RB3LYP) =  -828.564195241     A.U. after   13 cycles
 SCF Done:  E(RB3LYP) =  -828.565003577     A.U. after   13 cycles
 SCF Done:  E(RB3LYP) =  -828.565427687     A.U. after   13 cycles
 SCF Done:  E(RB3LYP) =  -828.565468556     A.U. after   12 cycles
 SCF Done:  E(RB3LYP) =  -828.565531884     A.U. after   11 cycles
 SCF Done:  E(RB3LYP) =  -828.565554751     A.U. after   12 cycles
 SCF Done:  E(RB3LYP) =  -828.565565576     A.U. after   12 cycles
 SCF Done:  E(RB3LYP) =  -828.565574127     A.U. after   11 cycles
 SCF Done:  E(RB3LYP) =  -828.565580500     A.U. after   10 cycles
 SCF Done:  E(RB3LYP) =  -828.565583188     A.U. after   10 cycles
 SCF Done:  E(RB3LYP) =  -828.565583522     A.U. after    9 cycles
 Optimization completed.
    -- Stationary point found.
 Normal termination of Gaussian 16 at Tue Dec  8 10:17:23 2020.

 --------------------------------------------------------------------
 #N Geom=AllCheck Guess=TCheck SCRF=Check GenChk RB3LYP/6-31G(d) Freq
 --------------------------------------------------------------------

 Structure from the checkpoint file:  "JID_129.chk"
 -----------------------------
 CID_14494371_JID_129_neutraal
 -----------------------------
 Charge =  0 Multiplicity = 1

 SCF Done:  E(RB3LYP) =  -828.565583522     A.U. after    1 cycles

  Exact polarizability: 106.638   8.919  96.455  -1.967   5.994  70.040
 Approx polarizability: 149.097  15.254 153.347  -7.519  26.681 139.023

                      1                      2                      3
                      A                      A                      A
 Frequencies --     40.2568                68.9352               112.0326
 Red. masses --     10.7839                 6.9057                 4.9895
 Frc consts  --      0.0103                 0.0193                 0.0369
 IR Inten    --      0.8244                 0.7512                 5.8507

                      4                      5                      6
                      A                      A                      A
 Frequencies --    157.6226               252.3425               256.8931
 Red. masses --      5.5054                 8.0109                 2.3290
 Frc consts  --      0.0806                 0.3005                 0.0906
 IR Inten    --      0.8360                 6.6512                 0.5050

                      7                      8                      9
                      A                      A                      A
 Frequencies --    391.7238               412.3051               423.1289
 Red. masses --      4.1296                 5.4636                 9.1727
 Frc consts  --      0.3734                 0.5472                 0.9676
 IR Inten    --     11.7675                13.2046                 2.3384

                     10                     11                     12
                      A                      A                      A
 Frequencies --    496.5417               559.9881               579.1151
 Red. masses --      1.3107                 3.2640                 6.0313
 Frc consts  --      0.1904                 0.6030                 1.1918
 IR Inten    --     24.2910                17.3421                41.1292

                     13                     14                     15
                      A                      A                      A
 Frequencies --    590.0036               611.4926               636.7331
 Red. masses --      2.1951                 1.7131                 3.8147
 Frc consts  --      0.4502                 0.3774                 0.9112
 IR Inten    --     32.1409               101.2349                 9.0429

                     16                     17                     18
                      A                      A                      A
 Frequencies --    740.3443               859.5307               886.8924
 Red. masses --      6.1533                 2.1410                 3.4902
 Frc consts  --      1.9871                 0.9319                 1.6175
 IR Inten    --     28.8317                14.9478                19.5876

                     19                     20                     21
                      A                      A                      A
 Frequencies --    928.1943               964.3584              1016.1820
 Red. masses --      3.4656                 2.6858                 2.7494
 Frc consts  --      1.7591                 1.4716                 1.6727
 IR Inten    --     20.2000                13.2520                14.8123

                     22                     23                     24
                      A                      A                      A
 Frequencies --   1098.5701              1128.6239              1152.6548
 Red. masses --      2.3793                 3.6431                 2.7015
 Frc consts  --      1.6918                 2.7341                 2.1148
 IR Inten    --     10.6474                18.4877                 6.6523

                     25                     26                     27
                      A                      A                      A
 Frequencies --   1195.2675              1228.4806              1277.5387
 Red. masses --      1.8192                 1.3168                 1.3174
 Frc consts  --      1.5313                 1.1709                 1.2668
 IR Inten    --    265.5444                25.8544                19.2602

                     28                     29                     30
                      A                      A                      A
 Frequencies --   1291.4429              1348.2919              1383.9823
 Red. masses --      5.1426                 1.4115                 1.3794
 Frc consts  --      5.0534                 1.5118                 1.5567
 IR Inten    --    163.4459                57.0268                19.1490

                     31                     32                     33
                      A                      A                      A
 Frequencies --   1401.5202              1409.7379              1447.0430
 Red. masses --      1.4941                 1.2694                 1.4133
 Frc consts  --      1.7292                 1.4863                 1.7436
 IR Inten    --    138.7043                 9.6995                 4.3919

                     34                     35                     36
                      A                      A                      A
 Frequencies --   1508.1483              1515.8741              1548.3829
 Red. masses --      1.1503                 1.9730                 1.3438
 Frc consts  --      1.5415                 2.6712                 1.8982
 IR Inten    --     25.7692               145.8647               104.5243

                     37                     38                     39
                      A                      A                      A
 Frequencies --   1587.7755              2265.9500              3009.4606
 Red. masses --      1.9216                13.8888                 1.0726
 Frc consts  --      2.8542                42.0160                 5.7237
 IR Inten    --    281.8004               399.3174                55.9686

                     40                     41                     42
                      A                      A                      A
 Frequencies --   3064.0230              3078.3745              3109.3770
 Red. masses --      1.0839                 1.0658                 1.0923
 Frc consts  --      5.9953                 5.9504                 6.2219
 IR Inten    --     29.8362                16.6716                24.2063

                     43                     44                     45
                      A                      A                      A
 Frequencies --   3138.5786              3618.1713              3636.6014
 Red. masses --      1.1030                 1.0771                 1.0782
 Frc consts  --      6.4017                 8.3075                 8.4009
 IR Inten    --     18.8095                59.9534                40.0285

 - Thermochemistry -
 -------------------
 Temperature   298.150 Kelvin.  Pressure   1.00000 Atm.
 Atom     1 has atomic number  6 and mass  12.00000

 Molecular mass:   157.04222 amu.
 Principal axes and moments of inertia in atomic units:
                           1         2         3
     Eigenvalues --  1009.731182252.103072862.39438
           X            0.99999  -0.00132   0.00471
           Y            0.00141   0.99981  -0.01955
           Z           -0.00468   0.01955   0.99980
 This molecule is an asymmetric top.
 Rotational symmetry number  1.
 Warning -- assumption of classical behavior for rotation
           may cause significant error
 Rotational temperatures (Kelvin)      0.08578     0.03846     0.03026
 Rotational constants (GHZ):           1.78735     0.80136     0.63050
 Zero-point vibrational energy     343498.6 (Joules/Mol)
                                   82.09814 (Kcal/Mol)
 Warning -- explicit consideration of  14 degrees of freedom as
           vibrations may cause significant error
 Vibrational temperatures:     57.92    99.18   161.19   226.78   363.06
          (Kelvin)            369.61   563.60   593.22   608.79   714.41
                              805.70   833.22   848.88   879.80   916.12
                             1065.19  1236.67  1276.04  1335.46  1387.50
                             1462.06  1580.60  1623.84  1658.41  1719.72
                             1767.51  1838.09  1858.10  1939.89  1991.24
                             2016.47  2028.30  2081.97  2169.89  2181.00
                             2227.78  2284.45  3260.20  4329.94  4408.45
                             4429.09  4473.70  4515.71  5205.74  5232.26

 Zero-point correction=                           0.130832 (Hartree/Particle)
 Thermal correction to Energy=                    0.140083
 Thermal correction to Enthalpy=                  0.141027
 Thermal correction to Gibbs Free Energy=         0.094917
 Sum of electronic and zero-point Energies=           -828.434752
 Sum of electronic and thermal Energies=              -828.425501
 Sum of electronic and thermal Enthalpies=            -828.424556
 Sum of electronic and thermal Free Energies=         -828.470666

                     E (Thermal)             CV                S
                      KCal/Mol        Cal/Mol-Kelvin    Cal/Mol-Kelvin
 Total                   87.903             33.429             97.046
 Electronic               0.000              0.000              0.000
 Translational            0.889              2.981             41.063
 Rotational               0.889              2.981             30.255
 Vibrational             86.126             27.467             25.728
 Vibration     1          0.594              1.981              5.246
 Vibration     2          0.598              1.969              4.184
 Vibration     3          0.607              1.940              3.233
 Vibration     4          0.621              1.894              2.578
 Vibration     5          0.664              1.759              1.714
 Vibration     6          0.666              1.751              1.683
 Vibration     7          0.759              1.488              0.994
 Vibration     8          0.776              1.444              0.919
 Vibration     9          0.785              1.420              0.881
 Vibration    10          0.852              1.258              0.667
 Vibration    11          0.916              1.118              0.524
 Vibration    12          0.936              1.076              0.487
 Vibration    13          0.947              1.053              0.467
 Vibration    14          0.971              1.008              0.430

                           ! Non-Optimized Parameters !
 Normal termination of Gaussian 16 at Tue Dec  8 10:20:06 2020.

 ----------------------------------------------------------------------
 # B3LYP/6-311++G(d,p) empiricaldispersion=gd3bj scf=xqc pop=npa geom=c
 heck
 ----------------------------------------------------------------------

 -------------------------------------
 CID_14494371_JID_129_Energie_neutraal
 -------------------------------------
 Structure from the checkpoint file:  "JID_129.chk"
 Charge =  0 Multiplicity = 1

 SCF Done:  E(RB3LYP) =  -828.715490880     A.U. after   15 cycles
 Normal termination of Gaussian 16 at Tue Dec  8 10:20:50 2020.

 ----------------------------------------------------------------------
 # B3LYP/6-311++G(d,p) empiricaldispersion=gd3bj scf=xqc pop=npa geom=c
 heck
 ----------------------------------------------------------------------

 -----------------------------------
 CID_14494371_JID_129_Energie_kation
 -----------------------------------
 Structure from the checkpoint file:  "JID_129.chk"
 Charge =  1 Multiplicity = 2

 SCF Done:  E(UB3LYP) =  -828.413895580     A.U. after   33 cycles
 SCF Done:  E(UB3LYP) =  -828.414059481     a.u. after    7 cycles
 Normal termination of Gaussian 16 at Tue Dec  8 10:37:35 2020.
 Gaussian 16:  ES64L-G16RevA.03 25-Dec-2016

 ----------------------------------------------------------------------
 # B3LYP/6-311++G(d,p) empiricaldispersion=gd3bj scf=xqc pop=npa geom=c
 heck
 ----------------------------------------------------------------------

 ----------------------------------
 CID_14494371_JID_129_Energie_anion
 ----------------------------------
 Structure from the checkpoint file:  "JID_129.chk"
 Charge = -1 Multiplicity = 2

                         Standard orientation:
 ---------------------------------------------------------------------
 Center     Atomic      Atomic             Coordinates (Angstroms)
 Number     Number       Type             X           Y           Z
 ---------------------------------------------------------------------
      1          6           0        0.899043    1.575413   -0.187802
      2          6           0       -0.508294    2.160085   -0.248314
      3          7           0       -1.458633    1.085017   -0.496862
      4          6           0       -1.351856   -0.160461    0.033738
      5         16           0       -2.600188   -1.280379   -0.045395
      6          7           0       -0.154524   -0.465493    0.619795
      7          6           0        0.949643    0.454553    0.851267
      8          7           0        2.233385   -0.277195    0.851764
      9          7           0        2.499605   -0.854673   -0.215563
     10          7           0        2.854127   -1.431077   -1.131387
     11          1           0        1.630775    2.343669    0.074631
     12          1           0        1.163594    1.166061   -1.169241
     13          1           0       -0.744670    2.687927    0.688630
     14          1           0       -0.583388    2.885551   -1.063295
     15          1           0       -2.373322    1.301917   -0.866204
     16          1           0       -0.141154   -1.348771    1.112573
     17          1           0        0.902233    0.876105    1.861668
 ---------------------------------------------------------------------

 SCF Done:  E(UB3LYP) =  -828.719032205     A.U. after   28 cycles

 The electronic state is 2-A.
 Alpha  occ. eigenvalues --  -88.67804 -14.33655 -14.24304 -14.24224 -14.23982
 Alpha  occ. eigenvalues --  -14.23105 -10.17995 -10.14675 -10.11228 -10.07773
 Alpha  occ. eigenvalues --   -7.76597  -5.73032  -5.72383  -5.72151  -1.00908
 Alpha  occ. eigenvalues --   -0.89652  -0.85370  -0.80159  -0.70838  -0.61002
 Alpha  occ. eigenvalues --   -0.60687  -0.54352  -0.48559  -0.45173  -0.42264
 Alpha  occ. eigenvalues --   -0.41065  -0.38817  -0.37684  -0.36789  -0.34136
 Alpha  occ. eigenvalues --   -0.31832  -0.31191  -0.29265  -0.28630  -0.25414
 Alpha  occ. eigenvalues --   -0.24909  -0.18897  -0.16121  -0.13829  -0.11054
 Alpha  occ. eigenvalues --   -0.10706   0.04014
 Alpha virt. eigenvalues --    0.06631   0.08169   0.08957   0.09673   0.10252
 Alpha virt. eigenvalues --    0.11389   0.11869   0.12446   0.13247   0.13545
 Alpha virt. eigenvalues --    0.14913   0.16101   0.16868   0.17570   0.18360

  Beta  occ. eigenvalues --  -88.67800 -14.33372 -14.24215 -14.23978 -14.23891
  Beta  occ. eigenvalues --  -14.23157 -10.17970 -10.14570 -10.11173 -10.07748
  Beta  occ. eigenvalues --   -7.76593  -5.73026  -5.72373  -5.72149  -1.00340
  Beta  occ. eigenvalues --   -0.89582  -0.85130  -0.80080  -0.70729  -0.60957
  Beta  occ. eigenvalues --   -0.60475  -0.54252  -0.48466  -0.45000  -0.41920
  Beta  occ. eigenvalues --   -0.40976  -0.38480  -0.37306  -0.36380  -0.33554
  Beta  occ. eigenvalues --   -0.31109  -0.30992  -0.29200  -0.28468  -0.25348
  Beta  occ. eigenvalues --   -0.24808  -0.18140  -0.16071  -0.13730  -0.11003
  Beta  occ. eigenvalues --   -0.10683
  Beta virt. eigenvalues --    0.07248   0.08675   0.09131   0.09916   0.10248
  Beta virt. eigenvalues --    0.10913   0.11806   0.12497   0.12753   0.13496
  Beta virt. eigenvalues --    0.13735   0.15034   0.16085   0.16924   0.17608

 Mulliken charges and spin densities:
               1          2
     1  C   -0.372944   0.124147
     2  C    1.265711  -1.569539
     3  N   -0.317543   0.183545
     4  C    0.312716  -0.058852
     5  S   -0.594453  -0.197385
     6  N   -0.152771   0.107618
     7  C    0.485033  -0.978632
     8  N   -0.354739   0.317390
     9  N    0.566439  -0.069136
    10  N   -0.362241   0.099985
    11  H   -0.391454   0.572888
    12  H    0.198605  -0.017400
    13  H   -0.169573   0.340733
    14  H   -0.944120   1.126077
    15  H    0.140230   0.162344
    16  H    0.225584   0.059815
    17  H   -0.534480   0.796402
 Sum of Mulliken charges =  -1.00000   1.00000

 Dipole moment (field-independent basis, Debye):
    X=             -0.6086    Y=             -1.6008    Z=             -0.0399  Tot=              1.7131
 Quadrupole moment (field-independent basis, Debye-Ang):
   XX=           -111.5339   YY=           -108.8105   ZZ=            -91.1103
   XY=             -2.9230   XZ=             -1.1937   YZ=             -4.2976

 Summary of Natural Population Analysis:

                                       Natural Population
                Natural  -----------------------------------------------
    Atom  No    Charge         Core      Valence    Rydberg      Total
 -----------------------------------------------------------------------
      C    1   -0.20565      0.99961     2.19603    0.01001     3.20565
      C    2   -0.08477      0.99961     2.07419    0.01097     3.08477
      N    3   -0.31392      0.99964     2.80219    0.01209     3.81392
      C    4    0.15965      0.99965     1.81847    0.02224     2.84035
      S    5   -0.16294      4.99959     3.15022    0.01312     8.16294
      N    6   -0.32342      0.99963     2.81185    0.01194     3.82342
      C    7    0.08820      0.99956     1.89600    0.01624     2.91180
      N    8   -0.21686      0.99971     2.70298    0.01417     3.71686
      N    9    0.13595      0.99970     2.34808    0.01627     3.36405
      N   10    0.00466      0.99982     2.48188    0.01364     3.49534
      H   11    0.11480      0.00000     0.38264    0.00256     0.38520
      H   12    0.10306      0.00000     0.39543    0.00151     0.39694
      H   13    0.09466      0.00000     0.40238    0.00296     0.40534
      H   14    0.10544      0.00000     0.39098    0.00357     0.39456
      H   15    0.20144      0.00000     0.29651    0.00205     0.29856
      H   16    0.20318      0.00000     0.29459    0.00223     0.29682
      H   17    0.09651      0.00000     0.40058    0.00291     0.40349
 =======================================================================
   * Total *    0.00000     13.99652    26.84501    0.15847    41.00000

 Normal termination of Gaussian 16 at Tue Dec  8 10:44:31 2020.
