 Gaussian 16, Revision A.03,

 -----------------------------------------------------------
 # opt freq B3LYP/6-31G(d) empiricaldispersion=gd3bj scf=xqc
 -----------------------------------------------------------

 ------------------------------
 CID_62491212_JID_5591_neutraal
 ------------------------------
 Symbolic Z-matrix:
 Charge =  0 Multiplicity = 1

 SCF Done:  E(RB3LYP) =  -629.395270375     A.U. after   14 cycles
 SCF Done:  E(RB3LYP) =  -629.398745800     A.U. after   12 cycles
 SCF Done:  E(RB3LYP) =  -629.399156960     A.U. after   12 cycles
 SCF Done:  E(RB3LYP) =  -629.399257443     A.U. after   11 cycles
 SCF Done:  E(RB3LYP) =  -629.399293294     A.U. after   11 cycles
 SCF Done:  E(RB3LYP) =  -629.399316876     A.U. after   11 cycles
 SCF Done:  E(RB3LYP) =  -629.399322604     A.U. after   10 cycles
 SCF Done:  E(RB3LYP) =  -629.399324559     A.U. after    9 cycles
 SCF Done:  E(RB3LYP) =  -629.399325055     A.U. after    8 cycles
 SCF Done:  E(RB3LYP) =  -629.399325220     A.U. after    7 cycles
 SCF Done:  E(RB3LYP) =  -629.399325269     A.U. after    7 cycles
 Optimization completed.
    -- Stationary point found.
 Normal termination of Gaussian 16 at Thu Dec 10 16:36:59 2020.

 --------------------------------------------------------------------
 #N Geom=AllCheck Guess=TCheck SCRF=Check GenChk RB3LYP/6-31G(d) Freq
 --------------------------------------------------------------------

 Structure from the checkpoint file:  "JID_5591.chk"
 ------------------------------
 CID_62491212_JID_5591_neutraal
 ------------------------------
 Charge =  0 Multiplicity = 1

 SCF Done:  E(RB3LYP) =  -629.399325269     A.U. after    1 cycles

  Exact polarizability: 172.030 -10.964 126.793 -13.195  -5.458 104.362
 Approx polarizability: 248.828 -26.927 203.727 -30.629  -9.195 182.981

                      1                      2                      3
                      A                      A                      A
 Frequencies --     26.6939                40.2956                72.2144
 Red. masses --      4.4441                 4.5796                 4.7908
 Frc consts  --      0.0019                 0.0044                 0.0147
 IR Inten    --      0.1189                 0.0266                 0.1616

                      4                      5                      6
                      A                      A                      A
 Frequencies --     86.5639               142.6636               169.9727
 Red. masses --      3.0010                 2.9642                 2.0536
 Frc consts  --      0.0132                 0.0355                 0.0350
 IR Inten    --      0.9646                 0.7652                 0.6665

                      7                      8                      9
                      A                      A                      A
 Frequencies --    220.1305               245.2858               278.5935
 Red. masses --      3.6551                 1.8393                 2.3767
 Frc consts  --      0.1044                 0.0652                 0.1087
 IR Inten    --      0.3092                 1.7519                 1.7543

                     10                     11                     12
                      A                      A                      A
 Frequencies --    298.6287               366.7106               411.8691
 Red. masses --      5.5654                 4.3402                 3.7768
 Frc consts  --      0.2924                 0.3439                 0.3775
 IR Inten    --      0.6775                 0.3585                 2.4342

                     13                     14                     15
                      A                      A                      A
 Frequencies --    415.1454               419.8643               450.3679
 Red. masses --      3.1840                 3.8122                 4.0280
 Frc consts  --      0.3233                 0.3960                 0.4814
 IR Inten    --      0.3602                 0.1518                 4.1621

                     16                     17                     18
                      A                      A                      A
 Frequencies --    552.4558               627.2287               635.8812
 Red. masses --      3.6437                 4.1360                 6.3253
 Frc consts  --      0.6552                 0.9587                 1.5069
 IR Inten    --      7.8818                 6.3383                 0.0453

                     19                     20                     21
                      A                      A                      A
 Frequencies --    646.5170               707.6447               719.1705
 Red. masses --      8.6858                 4.1984                 1.7848
 Frc consts  --      2.1390                 1.2387                 0.5439
 IR Inten    --      9.4992                 7.7605                27.3980

                     22                     23                     24
                      A                      A                      A
 Frequencies --    752.6214               765.6365               782.5745
 Red. masses --      2.5200                 1.8997                 2.3707
 Frc consts  --      0.8410                 0.6561                 0.8554
 IR Inten    --     27.9258                60.9351                23.4174

                     25                     26                     27
                      A                      A                      A
 Frequencies --    859.1770               863.0027               891.0666
 Red. masses --      1.7065                 1.5427                 3.4161
 Frc consts  --      0.7422                 0.6770                 1.5981
 IR Inten    --     26.2166                22.0071                37.1430

                     28                     29                     30
                      A                      A                      A
 Frequencies --    927.8176               943.3633               967.8972
 Red. masses --      1.4760                 1.9226                 1.3549
 Frc consts  --      0.7486                 1.0081                 0.7478
 IR Inten    --      1.9218                 1.1345                 0.1712

                     31                     32                     33
                      A                      A                      A
 Frequencies --    996.5065              1000.5147              1006.3123
 Red. masses --      1.3001                 1.8357                 1.4430
 Frc consts  --      0.7606                 1.0827                 0.8610
 IR Inten    --      1.9171                 5.6653                 0.0900

                     34                     35                     36
                      A                      A                      A
 Frequencies --   1022.4800              1023.2282              1060.4270
 Red. masses --      2.8286                 1.9522                 2.2506
 Frc consts  --      1.7424                 1.2042                 1.4911
 IR Inten    --      0.8933                 1.0779                 0.6208

                     37                     38                     39
                      A                      A                      A
 Frequencies --   1068.7038              1112.0526              1137.4435
 Red. masses --      3.7944                 1.6002                 4.2539
 Frc consts  --      2.5533                 1.1660                 3.2426
 IR Inten    --     14.0334                 3.5679                30.3084

                     40                     41                     42
                      A                      A                      A
 Frequencies --   1150.6714              1171.9279              1191.6188
 Red. masses --      4.1756                 1.4168                 1.7379
 Frc consts  --      3.2574                 1.1465                 1.4540
 IR Inten    --      9.4126                11.3275                 8.0854

                     43                     44                     45
                      A                      A                      A
 Frequencies --   1194.8285              1214.3931              1215.7344
 Red. masses --      1.1319                 2.0507                 1.2891
 Frc consts  --      0.9521                 1.7819                 1.1226
 IR Inten    --      0.7587                10.2450                 2.6952

                     46                     47                     48
                      A                      A                      A
 Frequencies --   1225.8320              1247.2030              1256.8402
 Red. masses --      2.2691                 1.7312                 6.0779
 Frc consts  --      2.0090                 1.5867                 5.6567
 IR Inten    --      2.7808                 3.5817                 0.8451

                     49                     50                     51
                      A                      A                      A
 Frequencies --   1302.2299              1353.2543              1368.9785
 Red. masses --      2.0954                 1.4531                 2.6194
 Frc consts  --      2.0936                 1.5679                 2.8923
 IR Inten    --     14.7762                14.5853                 0.7030

                     52                     53                     54
                      A                      A                      A
 Frequencies --   1381.3209              1389.0762              1458.6809
 Red. masses --      1.3211                 1.3506                 2.6874
 Frc consts  --      1.4852                 1.5355                 3.3691
 IR Inten    --      0.7693                 5.5643                95.1620

                     55                     56                     57
                      A                      A                      A
 Frequencies --   1472.8497              1481.1135              1503.9085
 Red. masses --      1.8945                 1.2175                 1.9278
 Frc consts  --      2.4214                 1.5736                 2.5690
 IR Inten    --     19.1510                 2.0265                 8.0332

                     58                     59                     60
                      A                      A                      A
 Frequencies --   1507.5606              1519.0067              1545.7491
 Red. masses --      1.2956                 1.0521                 2.1783
 Frc consts  --      1.7349                 1.4303                 3.0666
 IR Inten    --     16.3586                 6.2737                 5.3309

                     61                     62                     63
                      A                      A                      A
 Frequencies --   1548.3596              1610.0968              1638.7962
 Red. masses --      1.0474                 5.4557                 5.1161
 Frc consts  --      1.4795                 8.3331                 8.0954
 IR Inten    --     11.5571                66.5302                18.2321

                     64                     65                     66
                      A                      A                      A
 Frequencies --   1648.1616              1665.9786              3000.1406
 Red. masses --      5.4966                 5.5567                 1.0516
 Frc consts  --      8.7972                 9.0868                 5.5767
 IR Inten    --      1.6911                 1.8928                60.1917

                     67                     68                     69
                      A                      A                      A
 Frequencies --   3020.4714              3082.9321              3128.1386
 Red. masses --      1.0828                 1.0842                 1.1020
 Frc consts  --      5.8202                 6.0715                 6.3533
 IR Inten    --     17.2497                38.5523                27.9705

                     70                     71                     72
                      A                      A                      A
 Frequencies --   3174.6550              3176.9515              3182.7076
 Red. masses --      1.0868                 1.0877                 1.0898
 Frc consts  --      6.4537                 6.4680                 6.5044
 IR Inten    --      9.8392                 6.1049                25.3649

                     73                     74                     75
                      A                      A                      A
 Frequencies --   3190.2750              3191.0207              3200.5000
 Red. masses --      1.0916                 1.0890                 1.0935
 Frc consts  --      6.5458                 6.5333                 6.5995
 IR Inten    --     27.9944                 3.7459                32.7976

                     76                     77                     78
                      A                      A                      A
 Frequencies --   3209.5763              3212.6288              3480.0694
 Red. masses --      1.0914                 1.0978                 1.0737
 Frc consts  --      6.6244                 6.6758                 7.6614
 IR Inten    --      4.3033                22.2846                 0.4835

 - Thermochemistry -
 -------------------
 Temperature   298.150 Kelvin.  Pressure   1.00000 Atm.
 Atom     1 has atomic number  6 and mass  12.00000

 Molecular mass:   199.11095 amu.
 Principal axes and moments of inertia in atomic units:
                           1         2         3
     Eigenvalues --  1755.174154331.704815398.41010
           X            1.00000  -0.00007  -0.00278
           Y            0.00005   0.99997  -0.00815
           Z            0.00279   0.00815   0.99996
 This molecule is an asymmetric top.
 Rotational symmetry number  1.
 Warning -- assumption of classical behavior for rotation
           may cause significant error
 Rotational temperatures (Kelvin)      0.04935     0.02000     0.01604
 Rotational constants (GHZ):           1.02824     0.41664     0.33431
 Zero-point vibrational energy     611465.0 (Joules/Mol)
                                  146.14364 (Kcal/Mol)
 Warning -- explicit consideration of  16 degrees of freedom as
           vibrations may cause significant error
 Vibrational temperatures:     38.41    57.98   103.90   124.55   205.26
          (Kelvin)            244.55   316.72   352.91   400.83   429.66
                              527.61   592.59   597.30   604.09   647.98
                              794.86   902.44   914.89   930.19  1018.14
                             1034.73  1082.85  1101.58  1125.95  1236.16
                             1241.67  1282.05  1334.92  1357.29  1392.59
                             1433.75  1439.52  1447.86  1471.12  1472.20
                             1525.72  1537.63  1600.00  1636.53  1655.56
                             1686.14  1714.47  1719.09  1747.24  1749.17
                             1763.70  1794.45  1808.31  1873.62  1947.03
                             1969.65  1987.41  1998.57  2098.72  2119.10
                             2130.99  2163.79  2169.04  2185.51  2223.99
                             2227.74  2316.57  2357.86  2371.34  2396.97
                             4316.53  4345.78  4435.65  4500.69  4567.62
                             4570.92  4579.21  4590.09  4591.17  4604.81
                             4617.86  4622.26  5007.04

 Zero-point correction=                           0.232895 (Hartree/Particle)
 Thermal correction to Energy=                    0.245595
 Thermal correction to Enthalpy=                  0.246540
 Thermal correction to Gibbs Free Energy=         0.192085
 Sum of electronic and zero-point Energies=           -629.166431
 Sum of electronic and thermal Energies=              -629.153730
 Sum of electronic and thermal Enthalpies=            -629.152786
 Sum of electronic and thermal Free Energies=         -629.207241

                     E (Thermal)             CV                S
                      KCal/Mol        Cal/Mol-Kelvin    Cal/Mol-Kelvin
 Total                  154.113             48.667            114.610
 Electronic               0.000              0.000              0.000
 Translational            0.889              2.981             41.771
 Rotational               0.889              2.981             32.084
 Vibrational            152.336             42.705             40.755
 Vibration     1          0.593              1.984              6.061
 Vibration     2          0.594              1.981              5.245
 Vibration     3          0.598              1.967              4.092
 Vibration     4          0.601              1.959              3.736
 Vibration     5          0.616              1.911              2.768
 Vibration     6          0.625              1.879              2.436
 Vibration     7          0.647              1.810              1.958
 Vibration     8          0.660              1.771              1.764
 Vibration     9          0.679              1.713              1.542
 Vibration    10          0.692              1.676              1.425
 Vibration    11          0.740              1.541              1.094
 Vibration    12          0.776              1.444              0.920
 Vibration    13          0.779              1.437              0.909
 Vibration    14          0.783              1.427              0.892
 Vibration    15          0.809              1.360              0.795
 Vibration    16          0.908              1.134              0.539

 Optimization completed.
    -- Stationary point found.
 Normal termination of Gaussian 16 at Thu Dec 10 16:48:53 2020.

 ----------------------------------------------------------------------
 # B3LYP/6-311++G(d,p) empiricaldispersion=gd3bj scf=xqc pop=npa geom=c
 heck
 ----------------------------------------------------------------------

 --------------------------------------
 CID_62491212_JID_5591_Energie_neutraal
 --------------------------------------
 Structure from the checkpoint file:  "JID_5591.chk"
 Charge =  0 Multiplicity = 1

 SCF Done:  E(RB3LYP) =  -629.564477291     A.U. after   15 cycles
 Normal termination of Gaussian 16 at Thu Dec 10 16:53:39 2020.

 ----------------------------------------------------------------------
 # B3LYP/6-311++G(d,p) empiricaldispersion=gd3bj scf=xqc pop=npa geom=c
 heck
 ----------------------------------------------------------------------

 ------------------------------------
 CID_62491212_JID_5591_Energie_kation
 ------------------------------------
 Structure from the checkpoint file:  "JID_5591.chk"
 Charge =  1 Multiplicity = 2

 SCF Done:  E(UB3LYP) =  -629.257875798     A.U. after   25 cycles
 Normal termination of Gaussian 16 at Thu Dec 10 17:07:30 2020.
 Gaussian 16:  ES64L-G16RevA.03 25-Dec-2016

 ----------------------------------------------------------------------
 # B3LYP/6-311++G(d,p) empiricaldispersion=gd3bj scf=xqc pop=npa geom=c
 heck
 ----------------------------------------------------------------------

 -----------------------------------
 CID_62491212_JID_5591_Energie_anion
 -----------------------------------
 Structure from the checkpoint file:  "JID_5591.chk"
 Charge = -1 Multiplicity = 2

                         Standard orientation:
 ---------------------------------------------------------------------
 Center     Atomic      Atomic             Coordinates (Angstroms)
 Number     Number       Type             X           Y           Z
 ---------------------------------------------------------------------
      1          6           0        1.020950    3.065550    0.087702
      2          7           0       -0.088493    2.158546    0.369203
      3          6           0       -0.063092    0.927381   -0.432246
      4          6           0        1.167718    0.061285   -0.182789
      5          6           0        2.166253   -0.062259   -1.151473
      6          6           0        3.318306   -0.810770   -0.899026
      7          6           0        3.482544   -1.443412    0.332053
      8          6           0        2.489660   -1.325842    1.308629
      9          6           0        1.342679   -0.579360    1.051351
     10          6           0       -1.364391    0.161925   -0.240636
     11          6           0       -1.481678   -1.201123   -0.529916
     12          7           0       -2.628368   -1.877761   -0.402291
     13          6           0       -3.676759   -1.169732    0.031377
     14          7           0       -3.697363    0.129662    0.340715
     15          6           0       -2.537607    0.784512    0.195002
     16          1           0        0.943664    3.411245   -0.949581
     17          1           0        2.020204    2.621027    0.222159
     18          1           0        0.936638    3.940318    0.739302
     19          1           0       -0.075469    1.903640    1.356278
     20          1           0       -0.024764    1.257704   -1.480495
     21          1           0        2.040452    0.431256   -2.112449
     22          1           0        4.084632   -0.897713   -1.664152
     23          1           0        4.376452   -2.027379    0.531295
     24          1           0        2.608569   -1.820999    2.268275
     25          1           0        0.566500   -0.503670    1.809605
     26          1           0       -0.619849   -1.770347   -0.872275
     27          1           0       -4.613799   -1.711290    0.144297
     28          1           0       -2.531158    1.844143    0.434174
 ---------------------------------------------------------------------

 SCF Done:  E(UB3LYP) =  -629.560289996     A.U. after   33 cycles
 SCF Done:  E(UB3LYP) =  -629.560289996     a.u. after    1 cycles

 The electronic state is 2-A.
 Alpha  occ. eigenvalues --  -14.19946 -14.17419 -14.17125 -10.10428 -10.10209
 Alpha  occ. eigenvalues --  -10.09111 -10.07257 -10.07198 -10.06838 -10.06794
 Alpha  occ. eigenvalues --  -10.06671 -10.06535 -10.06446 -10.06416 -10.06139
 Alpha  occ. eigenvalues --   -0.84743  -0.81198  -0.75018  -0.74773  -0.68215
 Alpha  occ. eigenvalues --   -0.64370  -0.63958  -0.59148  -0.54694  -0.51968
 Alpha  occ. eigenvalues --   -0.50923  -0.49810  -0.47195  -0.41666  -0.40117
 Alpha  occ. eigenvalues --   -0.38362  -0.38067  -0.35769  -0.35207  -0.34111
 Alpha  occ. eigenvalues --   -0.32070  -0.31518  -0.30561  -0.28958  -0.28555
 Alpha  occ. eigenvalues --   -0.27722  -0.27238  -0.27009  -0.25727  -0.24473
 Alpha  occ. eigenvalues --   -0.23676  -0.18592  -0.17255  -0.15629  -0.15003
 Alpha  occ. eigenvalues --   -0.14110  -0.12902  -0.11661   0.04684
 Alpha virt. eigenvalues --    0.06488   0.07451   0.07714   0.08652   0.09013
 Alpha virt. eigenvalues --    0.09083   0.09544   0.09753   0.09967   0.10947
 Alpha virt. eigenvalues --    0.11865   0.11949   0.12566   0.12945   0.13538

  Beta  occ. eigenvalues --  -14.19927 -14.17250 -14.16855 -10.10422 -10.10250
  Beta  occ. eigenvalues --  -10.09107 -10.07202 -10.07084 -10.06800 -10.06611
  Beta  occ. eigenvalues --  -10.06554 -10.06501 -10.06375 -10.06360 -10.06208
  Beta  occ. eigenvalues --   -0.84386  -0.81158  -0.74773  -0.74408  -0.68091
  Beta  occ. eigenvalues --   -0.64226  -0.63806  -0.59053  -0.54624  -0.51442
  Beta  occ. eigenvalues --   -0.50817  -0.49678  -0.47108  -0.41594  -0.39974
  Beta  occ. eigenvalues --   -0.38222  -0.37947  -0.35707  -0.35107  -0.34055
  Beta  occ. eigenvalues --   -0.32013  -0.31448  -0.30396  -0.28630  -0.28274
  Beta  occ. eigenvalues --   -0.27485  -0.27084  -0.26852  -0.25499  -0.24408
  Beta  occ. eigenvalues --   -0.23613  -0.17062  -0.16917  -0.15208  -0.14688
  Beta  occ. eigenvalues --   -0.13594  -0.12811  -0.11432
  Beta virt. eigenvalues --    0.06870   0.07684   0.08137   0.08664   0.08881
  Beta virt. eigenvalues --    0.09300   0.09804   0.09957   0.10049   0.10440
  Beta virt. eigenvalues --    0.10936   0.11914   0.12120   0.12622   0.12908

 Mulliken charges and spin densities:
               1          2
     1  C   -0.228045  -0.125824
     2  N   -0.048965  -0.037481
     3  C   -0.528972  -0.513729
     4  C    1.413515  -0.050366
     5  C   -0.902787   1.220150
     6  C    0.243969  -0.595929
     7  C    1.010934  -1.397183
     8  C   -0.500330   0.083989
     9  C   -0.832375   0.143566
    10  C    0.249318  -0.320672
    11  C   -0.412044   0.278517
    12  N   -0.114661   0.068715
    13  C   -0.031162  -0.060769
    14  N   -0.144058   0.115955
    15  C   -0.250497   0.121261
    16  H    0.093869   0.036745
    17  H    0.148079  -0.011605
    18  H    0.031869   0.096270
    19  H    0.139724   0.097785
    20  H    0.131577   0.037639
    21  H   -0.129129   0.298238
    22  H   -0.614717   0.784186
    23  H   -0.264180   0.407132
    24  H   -0.146707   0.314708
    25  H    0.098229   0.056511
    26  H    0.225028  -0.049310
    27  H    0.171102  -0.000254
    28  H    0.191418   0.001756
 Sum of Mulliken charges =  -1.00000   1.00000

 Dipole moment (field-independent basis, Debye):
    X=              0.1269    Y=              3.2936    Z=              0.9434  Tot=              3.4284
 Quadrupole moment (field-independent basis, Debye-Ang):
   XX=           -162.5214   YY=           -117.2322   ZZ=           -107.9756
   XY=              5.4854   XZ=              5.2934   YZ=             -2.9263

 Summary of Natural Population Analysis:

                                       Natural Population
                Natural  -----------------------------------------------
    Atom  No    Charge         Core      Valence    Rydberg      Total
 -----------------------------------------------------------------------
      C    1   -0.17883      0.99966     2.17242    0.00675     3.17883
      N    2   -0.33266      0.99976     2.82178    0.01112     3.83266
      C    3   -0.01969      0.99953     2.00655    0.01361     3.01969
      C    4   -0.02171      0.99949     2.01004    0.01217     3.02171
      C    5   -0.09956      0.99950     2.08971    0.01035     3.09956
      C    6   -0.08689      0.99956     2.07677    0.01056     3.08689
      C    7   -0.11041      0.99956     2.10057    0.01027     3.11041
      C    8   -0.09092      0.99956     2.08078    0.01058     3.09092
      C    9   -0.09738      0.99950     2.08841    0.00947     3.09738
      C   10   -0.07059      0.99948     2.06109    0.01002     3.07059
      C   11    0.08698      0.99954     1.89820    0.01528     2.91302
      N   12   -0.23021      0.99971     2.72050    0.01000     3.73021
      C   13    0.12145      0.99967     1.85961    0.01927     2.87855
      N   14   -0.22079      0.99971     2.71042    0.01066     3.72079
      C   15    0.06455      0.99954     1.92062    0.01529     2.93545
      H   16    0.08860      0.00000     0.41029    0.00111     0.41140
      H   17    0.08561      0.00000     0.41282    0.00157     0.41439
      H   18    0.09089      0.00000     0.40824    0.00087     0.40911
      H   19    0.17224      0.00000     0.32519    0.00257     0.32776
      H   20    0.09833      0.00000     0.40007    0.00159     0.40167
      H   21    0.09774      0.00000     0.40051    0.00175     0.40226
      H   22    0.09939      0.00000     0.39913    0.00147     0.40061
      H   23    0.09946      0.00000     0.39943    0.00111     0.40054
      H   24    0.09739      0.00000     0.40180    0.00080     0.40261
      H   25    0.10178      0.00000     0.39668    0.00155     0.39822
      H   26    0.08872      0.00000     0.40900    0.00228     0.41128
      H   27    0.07401      0.00000     0.42476    0.00124     0.42599
      H   28    0.09250      0.00000     0.40521    0.00229     0.40750
 =======================================================================
   * Total *    0.00000     14.99378    37.81061    0.19560    53.00000

 Normal termination of Gaussian 16 at Thu Dec 10 17:28:15 2020.
