 Gaussian 16, Revision A.03,

 -----------------------------------------------------------
 # opt freq B3LYP/6-31G(d) empiricaldispersion=gd3bj scf=xqc
 -----------------------------------------------------------

 -------------------------------
 CID_104872289_JID_3625_neutraal
 -------------------------------
 Symbolic Z-matrix:
 Charge =  0 Multiplicity = 1

 SCF Done:  E(RB3LYP) =  -577.876026019     A.U. after   14 cycles
 SCF Done:  E(RB3LYP) =  -577.880288694     A.U. after   12 cycles
 SCF Done:  E(RB3LYP) =  -577.881239017     A.U. after   11 cycles
 SCF Done:  E(RB3LYP) =  -577.881668398     A.U. after   10 cycles
 SCF Done:  E(RB3LYP) =  -577.881614110     A.U. after   11 cycles
 SCF Done:  E(RB3LYP) =  -577.882013560     A.U. after   11 cycles
 SCF Done:  E(RB3LYP) =  -577.882188992     A.U. after   12 cycles
 SCF Done:  E(RB3LYP) =  -577.882250243     A.U. after   10 cycles
 SCF Done:  E(RB3LYP) =  -577.882284852     A.U. after   10 cycles
 SCF Done:  E(RB3LYP) =  -577.882298435     A.U. after    9 cycles
 SCF Done:  E(RB3LYP) =  -577.882302224     A.U. after    9 cycles
 SCF Done:  E(RB3LYP) =  -577.882303830     A.U. after    7 cycles
 SCF Done:  E(RB3LYP) =  -577.882304208     A.U. after    7 cycles
 SCF Done:  E(RB3LYP) =  -577.882304273     A.U. after    7 cycles
 Optimization completed.
    -- Stationary point found.
 Normal termination of Gaussian 16 at Sun Dec 13 12:23:28 2020.

 --------------------------------------------------------------------
 #N Geom=AllCheck Guess=TCheck SCRF=Check GenChk RB3LYP/6-31G(d) Freq
 --------------------------------------------------------------------

 Structure from the checkpoint file:  "JID_3625.chk"
 -------------------------------
 CID_104872289_JID_3625_neutraal
 -------------------------------
 Charge =  0 Multiplicity = 1

 SCF Done:  E(RB3LYP) =  -577.882304273     A.U. after    1 cycles

  Exact polarizability: 141.318   1.903 106.861  -1.360   0.470 108.105
 Approx polarizability: 170.848   1.380 150.586  -3.955   6.085 174.487

                      1                      2                      3
                      A                      A                      A
 Frequencies --     29.8465                60.5546                90.5517
 Red. masses --      2.9763                 4.5464                 3.7836
 Frc consts  --      0.0016                 0.0098                 0.0183
 IR Inten    --      0.2428                 4.2108                 0.4168

                      4                      5                      6
                      A                      A                      A
 Frequencies --    113.4309               137.3853               182.0465
 Red. masses --      3.4795                 3.3247                 2.5090
 Frc consts  --      0.0264                 0.0370                 0.0490
 IR Inten    --      0.9755                 7.5514                 1.0718

                      7                      8                      9
                      A                      A                      A
 Frequencies --    200.3209               225.8497               229.1137
 Red. masses --      2.1813                 1.2604                 1.4586
 Frc consts  --      0.0516                 0.0379                 0.0451
 IR Inten    --      4.8636                 9.3331                14.0272

                     10                     11                     12
                      A                      A                      A
 Frequencies --    239.0576               248.8881               261.6387
 Red. masses --      1.1202                 1.5856                 1.5761
 Frc consts  --      0.0377                 0.0579                 0.0636
 IR Inten    --      7.7259                10.2478                 4.1109

                     13                     14                     15
                      A                      A                      A
 Frequencies --    275.7422               301.9449               349.5122
 Red. masses --      1.7041                 1.0816                 2.5797
 Frc consts  --      0.0763                 0.0581                 0.1857
 IR Inten    --      1.6795                 8.0577                 3.7133

                     16                     17                     18
                      A                      A                      A
 Frequencies --    350.7381               363.6376               377.9269
 Red. masses --      2.5172                 2.2575                 2.3784
 Frc consts  --      0.1824                 0.1759                 0.2001
 IR Inten    --      2.0840                 1.2227                 0.9825

                     19                     20                     21
                      A                      A                      A
 Frequencies --    413.8220               425.2064               435.8823
 Red. masses --      2.9890                 2.6625                 2.4892
 Frc consts  --      0.3016                 0.2836                 0.2786
 IR Inten    --      1.0283                 8.2780                 7.3300

                     22                     23                     24
                      A                      A                      A
 Frequencies --    488.7709               516.7634               561.9150
 Red. masses --      1.4465                 2.8911                 3.3959
 Frc consts  --      0.2036                 0.4549                 0.6317
 IR Inten    --     56.7835                 3.6329                15.5577

                     25                     26                     27
                      A                      A                      A
 Frequencies --    606.4966               701.2102               768.6565
 Red. masses --      2.5255                 3.5858                 2.8848
 Frc consts  --      0.5473                 1.0388                 1.0042
 IR Inten    --      4.9745                 4.4625                 9.6528

                     28                     29                     30
                      A                      A                      A
 Frequencies --    787.0003               856.7461               859.4534
 Red. masses --      3.9458                 2.3068                 1.5035
 Frc consts  --      1.4399                 0.9976                 0.6543
 IR Inten    --      3.9358                36.1155                47.5301

                     31                     32                     33
                      A                      A                      A
 Frequencies --    889.7085               921.7567               933.6157
 Red. masses --      1.6609                 2.4404                 1.8349
 Frc consts  --      0.7746                 1.2217                 0.9423
 IR Inten    --      6.5252                 1.5871                21.7753

                     34                     35                     36
                      A                      A                      A
 Frequencies --    941.4721               958.3939               988.6447
 Red. masses --      1.7003                 1.4478                 1.4926
 Frc consts  --      0.8880                 0.7835                 0.8595
 IR Inten    --      8.3695                 2.0203                 2.0412

                     37                     38                     39
                      A                      A                      A
 Frequencies --    993.1002              1007.9508              1025.7341
 Red. masses --      1.7139                 1.8868                 1.7337
 Frc consts  --      0.9959                 1.1294                 1.0747
 IR Inten    --      5.4099                 1.5170                23.9876

                     40                     41                     42
                      A                      A                      A
 Frequencies --   1040.4364              1073.4679              1078.1577
 Red. masses --      1.3536                 1.3635                 1.3366
 Frc consts  --      0.8633                 0.9257                 0.9154
 IR Inten    --      1.4446                 1.8543                 0.9085

                     43                     44                     45
                      A                      A                      A
 Frequencies --   1094.0710              1120.7616              1128.2348
 Red. masses --      2.6176                 1.3686                 1.9770
 Frc consts  --      1.8461                 1.0129                 1.4827
 IR Inten    --     13.4004                16.0919                 0.2291

                     46                     47                     48
                      A                      A                      A
 Frequencies --   1148.9525              1173.8754              1229.3266
 Red. masses --      1.4483                 1.8424                 2.3234
 Frc consts  --      1.1264                 1.4958                 2.0687
 IR Inten    --      0.7997                 9.7351                12.8214

                     49                     50                     51
                      A                      A                      A
 Frequencies --   1271.4157              1278.9091              1294.1565
 Red. masses --      2.4893                 1.8776                 1.9808
 Frc consts  --      2.3709                 1.8094                 1.9546
 IR Inten    --      2.5676                92.5574                 2.3017

                     52                     53                     54
                      A                      A                      A
 Frequencies --   1328.7458              1344.4300              1367.5523
 Red. masses --      2.7595                 2.1766                 1.2515
 Frc consts  --      2.8705                 2.3180                 1.3790
 IR Inten    --     43.4023                 1.6374                10.5502

                     55                     56                     57
                      A                      A                      A
 Frequencies --   1416.1586              1419.5228              1423.2524
 Red. masses --      1.8063                 1.3388                 1.3365
 Frc consts  --      2.1343                 1.5895                 1.5951
 IR Inten    --     10.4263                15.5272                10.5560

                     58                     59                     60
                      A                      A                      A
 Frequencies --   1442.5671              1448.8603              1458.9790
 Red. masses --      1.3489                 1.2868                 1.2468
 Frc consts  --      1.6539                 1.5915                 1.5636
 IR Inten    --      2.7198                17.9489                 0.7378

                     61                     62                     63
                      A                      A                      A
 Frequencies --   1508.5124              1512.7509              1516.6688
 Red. masses --      1.0806                 1.2158                 1.0767
 Frc consts  --      1.4488                 1.6392                 1.4592
 IR Inten    --     19.5100                 9.0561                 0.2156

                     64                     65                     66
                      A                      A                      A
 Frequencies --   1523.8217              1525.6631              1530.7950
 Red. masses --      1.0504                 1.0759                 1.0555
 Frc consts  --      1.4371                 1.4755                 1.4572
 IR Inten    --      7.8612                14.5676                 1.9674

                     67                     68                     69
                      A                      A                      A
 Frequencies --   1533.0480              1543.3504              1543.8469
 Red. masses --      1.0656                 1.0645                 1.1193
 Frc consts  --      1.4756                 1.4939                 1.5719
 IR Inten    --      2.5941                 3.8141                 4.4145

                     70                     71                     72
                      A                      A                      A
 Frequencies --   1552.5439              1561.4881              1700.7101
 Red. masses --      1.1831                 1.5327                 1.0884
 Frc consts  --      1.6802                 2.2018                 1.8549
 IR Inten    --    104.0184               187.2636                30.9234

                     73                     74                     75
                      A                      A                      A
 Frequencies --   1756.6490              2984.9229              3035.0164
 Red. masses --      8.8924                 1.0729                 1.0354
 Frc consts  --     16.1673                 5.6324                 5.6192
 IR Inten    --    175.8897                78.2238                17.3766

                     76                     77                     78
                      A                      A                      A
 Frequencies --   3039.5185              3048.3412              3058.3951
 Red. masses --      1.0359                 1.0351                 1.0387
 Frc consts  --      5.6385                 5.6670                 5.7242
 IR Inten    --     57.9117                16.5724                36.1676

                     79                     80                     81
                      A                      A                      A
 Frequencies --   3097.2172              3100.8131              3110.5573
 Red. masses --      1.1020                 1.1014                 1.1022
 Frc consts  --      6.2283                 6.2393                 6.2834
 IR Inten    --      1.5670                53.0056                26.6723

                     82                     83                     84
                      A                      A                      A
 Frequencies --   3116.4135              3120.0199              3121.4489
 Red. masses --      1.1027                 1.1019                 1.1022
 Frc consts  --      6.3098                 6.3198                 6.3276
 IR Inten    --     19.7312                16.0027                 6.4002

                     85                     86                     87
                      A                      A                      A
 Frequencies --   3126.8632              3132.6909              3137.3680
 Red. masses --      1.1019                 1.0552                 1.0907
 Frc consts  --      6.3474                 6.1013                 6.3254
 IR Inten    --     46.4215                16.6251                 3.9662

                     88                     89                     90
                      A                      A                      A
 Frequencies --   3164.0149              3169.0897              3211.4499
 Red. masses --      1.0881                 1.0995                 1.1162
 Frc consts  --      6.4181                 6.5062                 6.7825
 IR Inten    --      5.9551                 4.8755                19.3507

                     91                     92                     93
                      A                      A                      A
 Frequencies --   3485.8873              3568.8682              3642.9214
 Red. masses --      1.0505                 1.0926                 1.0766
 Frc consts  --      7.5207                 8.1991                 8.4180
 IR Inten    --      0.6820                 0.1647                14.7002

 - Thermochemistry -
 -------------------
 Temperature   298.150 Kelvin.  Pressure   1.00000 Atm.
 Atom     1 has atomic number  6 and mass  12.00000

 Molecular mass:   184.15756 amu.
 Principal axes and moments of inertia in atomic units:
                           1         2         3
     Eigenvalues --  1296.358503775.052984042.91588
           X            0.99999   0.00366  -0.00334
           Y           -0.00384   0.99858  -0.05308
           Z            0.00314   0.05309   0.99858
 This molecule is an asymmetric top.
 Rotational symmetry number  1.
 Warning -- assumption of classical behavior for rotation
           may cause significant error
 Rotational temperatures (Kelvin)      0.06681     0.02294     0.02142
 Rotational constants (GHZ):           1.39216     0.47807     0.44640
 Zero-point vibrational energy     780467.6 (Joules/Mol)
                                  186.53622 (Kcal/Mol)
 Warning -- explicit consideration of  25 degrees of freedom as
           vibrations may cause significant error
 Vibrational temperatures:     42.94    87.12   130.28   163.20   197.67
          (Kelvin)            261.92   288.22   324.95   329.64   343.95
                              358.09   376.44   396.73   434.43   502.87
                              504.63   523.19   543.75   595.40   611.78
                              627.14   703.23   743.51   808.47   872.61
                             1008.89  1105.93  1132.32  1232.67  1236.56
                             1280.09  1326.20  1343.26  1354.57  1378.92
                             1422.44  1428.85  1450.22  1475.80  1496.96
                             1544.48  1551.23  1574.12  1612.53  1623.28
                             1653.09  1688.94  1768.73  1829.28  1840.06
                             1862.00  1911.77  1934.33  1967.60  2037.54
                             2042.38  2047.74  2075.53  2084.59  2099.15
                             2170.41  2176.51  2182.15  2192.44  2195.09
                             2202.47  2205.71  2220.54  2221.25  2233.76
                             2246.63  2446.94  2527.43  4294.64  4366.71
                             4373.19  4385.88  4400.35  4456.20  4461.38
                             4475.40  4483.82  4489.01  4491.07  4498.86
                             4507.24  4513.97  4552.31  4559.61  4620.56
                             5015.41  5134.81  5241.35

 Zero-point correction=                           0.297264 (Hartree/Particle)
 Thermal correction to Energy=                    0.312636
 Thermal correction to Enthalpy=                  0.313580
 Thermal correction to Gibbs Free Energy=         0.255790
 Sum of electronic and zero-point Energies=           -577.585040
 Sum of electronic and thermal Energies=              -577.569669
 Sum of electronic and thermal Enthalpies=            -577.568725
 Sum of electronic and thermal Free Energies=         -577.626514

                     E (Thermal)             CV                S
                      KCal/Mol        Cal/Mol-Kelvin    Cal/Mol-Kelvin
 Total                  196.182             58.531            121.629
 Electronic               0.000              0.000              0.000
 Translational            0.889              2.981             41.538
 Rotational               0.889              2.981             31.359
 Vibrational            194.404             52.569             48.731
 Vibration     1          0.594              1.984              5.840
 Vibration     2          0.597              1.973              4.439
 Vibration     3          0.602              1.956              3.648
 Vibration     4          0.607              1.938              3.209
 Vibration     5          0.614              1.916              2.840
 Vibration     6          0.630              1.864              2.307
 Vibration     7          0.638              1.839              2.130
 Vibration     8          0.650              1.802              1.912
 Vibration     9          0.652              1.797              1.886
 Vibration    10          0.657              1.781              1.810
 Vibration    11          0.662              1.765              1.738
 Vibration    12          0.669              1.743              1.651
 Vibration    13          0.677              1.718              1.560
 Vibration    14          0.694              1.670              1.406
 Vibration    15          0.727              1.576              1.168
 Vibration    16          0.728              1.574              1.163
 Vibration    17          0.737              1.547              1.107
 Vibration    18          0.748              1.517              1.047
 Vibration    19          0.777              1.440              0.913
 Vibration    20          0.787              1.415              0.874
 Vibration    21          0.796              1.392              0.840
 Vibration    22          0.845              1.275              0.687
 Vibration    23          0.872              1.213              0.618
 Vibration    24          0.918              1.114              0.520
 Vibration    25          0.965              1.018              0.439

                           ! Non-Optimized Parameters !
 Normal termination of Gaussian 16 at Sun Dec 13 12:32:42 2020.

 ----------------------------------------------------------------------
 # B3LYP/6-311++G(d,p) empiricaldispersion=gd3bj scf=xqc pop=npa geom=c
 heck
 ----------------------------------------------------------------------

 ---------------------------------------
 CID_104872289_JID_3625_Energie_neutraal
 ---------------------------------------
 Structure from the checkpoint file:  "JID_3625.chk"
 Charge =  0 Multiplicity = 1

 SCF Done:  E(RB3LYP) =  -578.057515142     A.U. after   14 cycles
 Normal termination of Gaussian 16 at Sun Dec 13 12:36:30 2020.

 ----------------------------------------------------------------------
 # B3LYP/6-311++G(d,p) empiricaldispersion=gd3bj scf=xqc pop=npa geom=c
 heck
 ----------------------------------------------------------------------

 -------------------------------------
 CID_104872289_JID_3625_Energie_kation
 -------------------------------------
 Structure from the checkpoint file:  "JID_3625.chk"
 Charge =  1 Multiplicity = 2

 SCF Done:  E(UB3LYP) =  -577.744810759     A.U. after   33 cycles
 SCF Done:  E(UB3LYP) =  -577.744810759     a.u. after    1 cycles
 Normal termination of Gaussian 16 at Sun Dec 13 12:48:37 2020.
 Gaussian 16:  ES64L-G16RevA.03 25-Dec-2016

 ----------------------------------------------------------------------
 # B3LYP/6-311++G(d,p) empiricaldispersion=gd3bj scf=xqc pop=npa geom=c
 heck
 ----------------------------------------------------------------------

 ------------------------------------
 CID_104872289_JID_3625_Energie_anion
 ------------------------------------
 Structure from the checkpoint file:  "JID_3625.chk"
 Charge = -1 Multiplicity = 2

                         Standard orientation:
 ---------------------------------------------------------------------
 Center     Atomic      Atomic             Coordinates (Angstroms)
 Number     Number       Type             X           Y           Z
 ---------------------------------------------------------------------
      1          6           0        2.061558    1.470917   -0.471884
      2          6           0        2.590114    0.185162    0.136829
      3          6           0        2.083325   -0.209173    1.505568
      4          6           0        1.630266   -0.980525    0.284653
      5          6           0        0.253284   -0.893138   -0.324971
      6          8           0        0.091033   -1.092771   -1.528539
      7          7           0       -0.759034   -0.608004    0.540543
      8          6           0       -2.129420   -0.244268    0.144078
      9          6           0       -2.800199   -1.421888   -0.578325
     10          6           0       -2.888816    0.082387    1.434871
     11          6           0       -2.096701    0.987053   -0.791283
     12          7           0       -1.490448    2.153179   -0.137897
     13          6           0        4.026414   -0.139447   -0.222711
     14          1           0        2.042587    1.395370   -1.565777
     15          1           0        1.044968    1.695115   -0.132474
     16          1           0        2.707131    2.315330   -0.199178
     17          1           0        2.760670   -0.705964    2.195482
     18          1           0        1.386153    0.473389    1.987183
     19          1           0        2.072361   -1.962931    0.134176
     20          1           0       -0.480756   -0.349559    1.474892
     21          1           0       -3.830032   -1.163332   -0.849979
     22          1           0       -2.243946   -1.679183   -1.481101
     23          1           0       -2.826531   -2.298952    0.076708
     24          1           0       -2.409829    0.907709    1.974335
     25          1           0       -3.919701    0.372265    1.205590
     26          1           0       -2.921947   -0.790091    2.096755
     27          1           0       -1.487123    0.722178   -1.657547
     28          1           0       -3.123521    1.168882   -1.150032
     29          1           0       -1.142321    2.798711   -0.842104
     30          1           0       -2.187593    2.666120    0.397563
     31          1           0        4.702360    0.657505    0.112459
     32          1           0        4.355263   -1.076489    0.240504
     33          1           0        4.140957   -0.242610   -1.308619
 ---------------------------------------------------------------------

 SCF Done:  E(UB3LYP) =  -578.044784775     A.U. after   32 cycles

 The electronic state is 2-A.
 Alpha  occ. eigenvalues --  -18.98160 -14.22964 -14.18801 -10.16853 -10.11694
 Alpha  occ. eigenvalues --  -10.09434 -10.08406 -10.08352 -10.07693 -10.06992
 Alpha  occ. eigenvalues --  -10.06076 -10.05649 -10.05634  -0.93177  -0.82753
 Alpha  occ. eigenvalues --   -0.78034  -0.77141  -0.68622  -0.63293  -0.59474
 Alpha  occ. eigenvalues --   -0.59466  -0.56284  -0.55006  -0.49358  -0.45760
 Alpha  occ. eigenvalues --   -0.44765  -0.41065  -0.39374  -0.37734  -0.36947
 Alpha  occ. eigenvalues --   -0.34686  -0.34517  -0.33631  -0.33215  -0.30847
 Alpha  occ. eigenvalues --   -0.30748  -0.29670  -0.29092  -0.28962  -0.28319
 Alpha  occ. eigenvalues --   -0.27735  -0.27295  -0.26183  -0.24780  -0.24461
 Alpha  occ. eigenvalues --   -0.23473  -0.20472  -0.17904  -0.15792  -0.14692
 Alpha  occ. eigenvalues --   -0.14246   0.04337
 Alpha virt. eigenvalues --    0.06186   0.07324   0.08114   0.08572   0.08943
 Alpha virt. eigenvalues --    0.09241   0.10127   0.10531   0.10760   0.11339
 Alpha virt. eigenvalues --    0.11768   0.11883   0.12297   0.13264   0.13436

  Beta  occ. eigenvalues --  -18.98157 -14.22949 -14.18750 -10.16853 -10.11693
  Beta  occ. eigenvalues --  -10.09432 -10.08387 -10.08345 -10.07668 -10.06973
  Beta  occ. eigenvalues --  -10.06028 -10.05631 -10.05624  -0.93172  -0.82733
  Beta  occ. eigenvalues --   -0.78008  -0.77081  -0.68589  -0.63268  -0.59441
  Beta  occ. eigenvalues --   -0.59407  -0.56217  -0.54963  -0.49306  -0.45726
  Beta  occ. eigenvalues --   -0.44717  -0.41029  -0.39336  -0.37702  -0.36895
  Beta  occ. eigenvalues --   -0.34652  -0.34471  -0.33608  -0.33176  -0.30825
  Beta  occ. eigenvalues --   -0.30725  -0.29639  -0.29061  -0.28920  -0.28293
  Beta  occ. eigenvalues --   -0.27714  -0.27271  -0.26158  -0.24760  -0.24430
  Beta  occ. eigenvalues --   -0.23443  -0.20452  -0.17887  -0.15776  -0.14678
  Beta  occ. eigenvalues --   -0.14197
  Beta virt. eigenvalues --    0.06498   0.07266   0.07951   0.08619   0.09093
  Beta virt. eigenvalues --    0.09443   0.09607   0.10387   0.10932   0.11169
  Beta virt. eigenvalues --    0.11658   0.11916   0.12210   0.12471   0.13352

 Mulliken charges and spin densities:
               1          2
     1  C   -0.768457   0.014895
     2  C   -0.761404   1.340856
     3  C    0.149825  -0.872789
     4  C    0.016686   0.119787
     5  C    0.489767  -1.058848
     6  O   -0.282134   0.014304
     7  N    0.317086  -0.037987
     8  C   -1.824388   1.805415
     9  C    0.344002  -0.812041
    10  C    1.033144  -1.435673
    11  C    0.957012  -1.562591
    12  N   -0.440868   0.118857
    13  C    0.562501  -1.001671
    14  H    0.068861   0.086720
    15  H    0.418236  -0.207219
    16  H   -0.148475   0.293762
    17  H   -0.485738   0.657400
    18  H   -0.153354   0.308556
    19  H    0.073151   0.169070
    20  H    0.549589  -0.263660
    21  H    0.103445   0.039211
    22  H    0.176933   0.007869
    23  H    0.062288   0.074648
    24  H   -0.137676   0.286668
    25  H   -0.471526   0.633526
    26  H   -0.303367   0.454829
    27  H    0.188554   0.034177
    28  H   -0.269269   0.430013
    29  H   -0.095813   0.330766
    30  H   -0.235875   0.481119
    31  H   -0.048606   0.184362
    32  H   -0.192382   0.321726
    33  H    0.108251   0.043943
 Sum of Mulliken charges =  -1.00000   1.00000

 Dipole moment (field-independent basis, Debye):
    X=              2.2915    Y=             -2.8795    Z=             -1.8303  Tot=              4.1101
 Quadrupole moment (field-independent basis, Debye-Ang):
   XX=           -152.3313   YY=           -125.1131   ZZ=           -120.9240
   XY=             11.5604   XZ=              1.0340   YZ=             -1.9086

 Summary of Natural Population Analysis:

                                       Natural Population
                Natural  -----------------------------------------------
    Atom  No    Charge         Core      Valence    Rydberg      Total
 -----------------------------------------------------------------------
      C    1   -0.29124      0.99962     2.28507    0.00656     3.29124
      C    2   -0.03233      0.99956     2.02215    0.01061     3.03233
      C    3   -0.19640      0.99957     2.18705    0.00978     3.19640
      C    4   -0.14785      0.99950     2.13693    0.01143     3.14785
      C    5    0.34517      0.99963     1.63251    0.02268     2.65483
      O    6   -0.33203      0.99988     3.32751    0.00464     4.33203
      N    7   -0.31816      0.99963     2.80759    0.01094     3.81816
      C    8    0.05440      0.99957     1.93048    0.01555     2.94560
      C    9   -0.29030      0.99961     2.28501    0.00568     3.29030
      C   10   -0.29265      0.99962     2.28550    0.00753     3.29265
      C   11   -0.09635      0.99955     2.08389    0.01290     3.09635
      N   12   -0.42748      0.99977     2.91663    0.01108     3.92748
      C   13   -0.27930      0.99962     2.27358    0.00610     3.27930
      H   14    0.10133      0.00000     0.39774    0.00092     0.39867
      H   15    0.11515      0.00000     0.38279    0.00206     0.38485
      H   16    0.09755      0.00000     0.40153    0.00091     0.40245
      H   17    0.10471      0.00000     0.39397    0.00132     0.39529
      H   18    0.10388      0.00000     0.39460    0.00152     0.39612
      H   19    0.11265      0.00000     0.38640    0.00095     0.38735
      H   20    0.19786      0.00000     0.29870    0.00344     0.30214
      H   21    0.09874      0.00000     0.40042    0.00084     0.40126
      H   22    0.11458      0.00000     0.38448    0.00094     0.38542
      H   23    0.09935      0.00000     0.39984    0.00081     0.40065
      H   24    0.10609      0.00000     0.39222    0.00169     0.39391
      H   25    0.10632      0.00000     0.39187    0.00181     0.39368
      H   26    0.10138      0.00000     0.39735    0.00128     0.39862
      H   27    0.10538      0.00000     0.39321    0.00141     0.39462
      H   28    0.08398      0.00000     0.41438    0.00164     0.41602
      H   29    0.17859      0.00000     0.31928    0.00212     0.32141
      H   30    0.17942      0.00000     0.31612    0.00446     0.32058
      H   31    0.09853      0.00000     0.40058    0.00089     0.40147
      H   32    0.09917      0.00000     0.39982    0.00101     0.40083
      H   33    0.09984      0.00000     0.39928    0.00088     0.40016
 =======================================================================
   * Total *    0.00000     12.99514    37.83846    0.16640    51.00000

 Normal termination of Gaussian 16 at Sun Dec 13 13:00:15 2020.
