 Gaussian 16, Revision A.03,

 -----------------------------------------------------------
 # opt freq B3LYP/6-31G(d) empiricaldispersion=gd3bj scf=xqc
 -----------------------------------------------------------

 ------------------------------
 CID_89384172_JID_8451_neutraal
 ------------------------------
 Symbolic Z-matrix:
 Charge =  0 Multiplicity = 1

 SCF Done:  E(RB3LYP) =  -763.365994567     A.U. after   15 cycles
 SCF Done:  E(RB3LYP) =  -763.371574299     A.U. after   14 cycles
 SCF Done:  E(RB3LYP) =  -763.372639361     A.U. after   13 cycles
 SCF Done:  E(RB3LYP) =  -763.373073244     A.U. after   13 cycles
 SCF Done:  E(RB3LYP) =  -763.373291010     A.U. after   13 cycles
 SCF Done:  E(RB3LYP) =  -763.373433787     A.U. after   12 cycles
 SCF Done:  E(RB3LYP) =  -763.373588447     A.U. after   12 cycles
 SCF Done:  E(RB3LYP) =  -763.373617330     A.U. after   12 cycles
 SCF Done:  E(RB3LYP) =  -763.373627783     A.U. after   10 cycles
 SCF Done:  E(RB3LYP) =  -763.373634365     A.U. after   10 cycles
 SCF Done:  E(RB3LYP) =  -763.374403815     A.U. after   11 cycles
 SCF Done:  E(RB3LYP) =  -763.374413787     A.U. after   11 cycles
 SCF Done:  E(RB3LYP) =  -763.374413361     A.U. after    8 cycles
 SCF Done:  E(RB3LYP) =  -763.374414090     A.U. after    9 cycles
 SCF Done:  E(RB3LYP) =  -763.374414201     A.U. after    8 cycles
 SCF Done:  E(RB3LYP) =  -763.374414206     A.U. after    6 cycles
 Optimization completed.
    -- Stationary point found.
 Normal termination of Gaussian 16 at Fri Dec 11 20:58:46 2020.

 --------------------------------------------------------------------
 #N Geom=AllCheck Guess=TCheck SCRF=Check GenChk RB3LYP/6-31G(d) Freq
 --------------------------------------------------------------------

 Structure from the checkpoint file:  "JID_8451.chk"
 ------------------------------
 CID_89384172_JID_8451_neutraal
 ------------------------------
 Charge =  0 Multiplicity = 1

 SCF Done:  E(RB3LYP) =  -763.374414206     A.U. after    1 cycles

  Exact polarizability: 297.678  -7.839 169.013 -13.624 -13.187 115.938
 Approx polarizability: 412.072  12.594 280.526 -23.020 -28.246 189.491

                      1                      2                      3
                      A                      A                      A
 Frequencies --     17.2466                30.0528                32.1545
 Red. masses --      4.1490                 1.1829                 2.6728
 Frc consts  --      0.0007                 0.0006                 0.0016
 IR Inten    --      0.2940                 0.1513                 0.9232

                      4                      5                      6
                      A                      A                      A
 Frequencies --     48.8598                61.5251                65.2943
 Red. masses --      4.0268                 3.4524                 4.0894
 Frc consts  --      0.0057                 0.0077                 0.0103
 IR Inten    --      0.8291                 1.8152                 1.5996

                      7                      8                      9
                      A                      A                      A
 Frequencies --     81.1173               106.1755               116.1657
 Red. masses --      3.6874                 3.1007                 1.3970
 Frc consts  --      0.0143                 0.0206                 0.0111
 IR Inten    --      0.5145                 3.9601                 1.8499

                     10                     11                     12
                      A                      A                      A
 Frequencies --    126.6105               175.8293               212.7217
 Red. masses --      2.9561                 4.5691                 1.6501
 Frc consts  --      0.0279                 0.0832                 0.0440
 IR Inten    --      1.0298                 1.6278                 1.0306

                     13                     14                     15
                      A                      A                      A
 Frequencies --    228.8603               274.1170               299.7052
 Red. masses --      1.6625                 3.2295                 4.4750
 Frc consts  --      0.0513                 0.1430                 0.2368
 IR Inten    --      0.1357                 3.8728                 8.1302

                     16                     17                     18
                      A                      A                      A
 Frequencies --    323.5801               331.9277               358.4119
 Red. masses --      1.9903                 1.7632                 2.7995
 Frc consts  --      0.1228                 0.1145                 0.2119
 IR Inten    --    150.6272               159.8168                 0.7115

                     19                     20                     21
                      A                      A                      A
 Frequencies --    372.4137               406.8648               419.5916
 Red. masses --      3.2218                 4.1121                 3.1875
 Frc consts  --      0.2633                 0.4011                 0.3306
 IR Inten    --      1.5662                 5.6159                 0.7791

                     22                     23                     24
                      A                      A                      A
 Frequencies --    441.2736               449.0996               475.1465
 Red. masses --      3.2830                 4.3389                 2.6831
 Frc consts  --      0.3766                 0.5156                 0.3569
 IR Inten    --     18.4389                 6.9471                 8.3902

                     25                     26                     27
                      A                      A                      A
 Frequencies --    476.9314               506.0152               558.1326
 Red. masses --      3.5962                 1.6057                 3.1829
 Frc consts  --      0.4820                 0.2422                 0.5842
 IR Inten    --      9.5229                20.6400                 4.5217

                     28                     29                     30
                      A                      A                      A
 Frequencies --    585.3578               598.0035               608.2577
 Red. masses --      3.7999                 2.9701                 2.0810
 Frc consts  --      0.7671                 0.6258                 0.4536
 IR Inten    --      2.9676                14.0700                18.2431

                     31                     32                     33
                      A                      A                      A
 Frequencies --    644.7192               665.1184               708.2122
 Red. masses --      4.1068                 5.8065                 3.6562
 Frc consts  --      1.0058                 1.5134                 1.0805
 IR Inten    --      3.4303                 1.3374                17.2044

                     34                     35                     36
                      A                      A                      A
 Frequencies --    721.0204               750.6982               834.0942
 Red. masses --      3.7221                 3.2800                 3.2782
 Frc consts  --      1.1401                 1.0891                 1.3438
 IR Inten    --      3.8355                 8.0601                26.9717

                     37                     38                     39
                      A                      A                      A
 Frequencies --    838.8522               844.9413               855.0507
 Red. masses --      2.8910                 1.3479                 2.3357
 Frc consts  --      1.1986                 0.5670                 1.0061
 IR Inten    --     22.0732                12.2800                17.6927

                     40                     41                     42
                      A                      A                      A
 Frequencies --    889.4981               916.2998               952.5755
 Red. masses --      1.3917                 3.6949                 1.2832
 Frc consts  --      0.6488                 1.8278                 0.6861
 IR Inten    --     29.1747                12.8408                 3.3191

                     43                     44                     45
                      A                      A                      A
 Frequencies --    958.3986               973.3549               985.6252
 Red. masses --      1.3066                 1.4989                 1.9778
 Frc consts  --      0.7071                 0.8367                 1.1320
 IR Inten    --      0.5988                30.4009                42.7783

                     46                     47                     48
                      A                      A                      A
 Frequencies --    989.0870              1019.9527              1022.6238
 Red. masses --      1.4238                 1.3982                 1.4863
 Frc consts  --      0.8206                 0.8570                 0.9158
 IR Inten    --      8.4430                 0.1949                 6.0295

                     49                     50                     51
                      A                      A                      A
 Frequencies --   1038.8467              1052.2146              1071.5193
 Red. masses --      2.7281                 1.8585                 1.6043
 Frc consts  --      1.7347                 1.2123                 1.0853
 IR Inten    --      7.9300                49.7288                 2.1924

                     52                     53                     54
                      A                      A                      A
 Frequencies --   1075.3571              1095.3313              1145.5307
 Red. masses --      1.5006                 1.3827                 1.2751
 Frc consts  --      1.0224                 0.9774                 0.9859
 IR Inten    --     15.9313                 7.4401                 8.9383

                     55                     56                     57
                      A                      A                      A
 Frequencies --   1151.9556              1183.8736              1205.6622
 Red. masses --      2.3603                 2.3585                 1.2791
 Frc consts  --      1.8454                 1.9476                 1.0955
 IR Inten    --      7.8435                31.6210                 7.3036

                     58                     59                     60
                      A                      A                      A
 Frequencies --   1235.3300              1246.0248              1252.4772
 Red. masses --      3.2537                 2.4279                 1.7322
 Frc consts  --      2.9254                 2.2209                 1.6010
 IR Inten    --     18.5722                10.5245                13.7005

                     61                     62                     63
                      A                      A                      A
 Frequencies --   1332.8843              1347.7526              1372.3642
 Red. masses --      2.7688                 1.8936                 1.6874
 Frc consts  --      2.8982                 2.0266                 1.8724
 IR Inten    --      1.2896                 1.2614               128.4127

                     64                     65                     66
                      A                      A                      A
 Frequencies --   1396.6736              1408.4762              1438.8207
 Red. masses --      1.7134                 1.5581                 1.4980
 Frc consts  --      1.9692                 1.8211                 1.8272
 IR Inten    --    176.7326                17.9723                86.2311

                     67                     68                     69
                      A                      A                      A
 Frequencies --   1443.4168              1443.7705              1458.4715
 Red. masses --      1.2598                 1.5494                 2.7329
 Frc consts  --      1.5465                 1.9029                 3.4251
 IR Inten    --      0.6104                71.0316                 0.0934

                     70                     71                     72
                      A                      A                      A
 Frequencies --   1461.4681              1509.2984              1509.7195
 Red. masses --      1.8574                 1.0701                 1.0623
 Frc consts  --      2.3374                 1.4362                 1.4265
 IR Inten    --     61.5581                20.6399                 9.0460

                     73                     74                     75
                      A                      A                      A
 Frequencies --   1513.0425              1514.6250              1517.4444
 Red. masses --      1.0732                 1.0458                 1.0485
 Frc consts  --      1.4475                 1.4135                 1.4225
 IR Inten    --     12.9563                10.0102                 4.6426

                     76                     77                     78
                      A                      A                      A
 Frequencies --   1523.7479              1552.2983              1620.7757
 Red. masses --      1.1043                 2.5349                 5.6152
 Frc consts  --      1.5106                 3.5988                 8.6908
 IR Inten    --      5.6825                79.8064                 5.3110

                     79                     80                     81
                      A                      A                      A
 Frequencies --   1631.6384              1661.5034              1665.4096
 Red. masses --      5.2488                 1.4815                 4.8685
 Frc consts  --      8.2331                 2.4097                 7.9559
 IR Inten    --     66.0316                43.8428               154.9141

                     82                     83                     84
                      A                      A                      A
 Frequencies --   1682.5393              1703.4848              1737.0330
 Red. masses --      6.6519                 8.3458                 6.3752
 Frc consts  --     11.0951                14.2691                11.3334
 IR Inten    --    176.1184               139.7753               639.8346

                     85                     86                     87
                      A                      A                      A
 Frequencies --   3038.3271              3054.6977              3064.5284
 Red. masses --      1.0405                 1.0388                 1.0398
 Frc consts  --      5.6591                 5.7108                 5.7536
 IR Inten    --     51.9972                 7.7671                 9.6164

                     88                     89                     90
                      A                      A                      A
 Frequencies --   3093.7018              3109.3659              3121.5708
 Red. masses --      1.0959                 1.1003                 1.1023
 Frc consts  --      6.1800                 6.2676                 6.3282
 IR Inten    --     22.3162                13.3602                17.7405

                     91                     92                     93
                      A                      A                      A
 Frequencies --   3124.5215              3132.5937              3166.8296
 Red. masses --      1.1002                 1.0871                 1.1003
 Frc consts  --      6.3281                 6.2851                 6.5015
 IR Inten    --     13.6003                26.5475                10.5021

                     94                     95                     96
                      A                      A                      A
 Frequencies --   3174.7055              3175.2262              3178.6345
 Red. masses --      1.0884                 1.0879                 1.0995
 Frc consts  --      6.4629                 6.4625                 6.5455
 IR Inten    --     16.3127                28.9598                 2.4586

                     97                     98                     99
                      A                      A                      A
 Frequencies --   3201.4682              3206.3421              3247.7933
 Red. masses --      1.0929                 1.0931                 1.0878
 Frc consts  --      6.5998                 6.6212                 6.7606
 IR Inten    --     13.8313                11.0996                 1.2800

                    100                    101                    102
                      A                      A                      A
 Frequencies --   3392.1702              3588.4018              3710.5755
 Red. masses --      1.0720                 1.0466                 1.1026
 Frc consts  --      7.2678                 7.9404                 8.9440
 IR Inten    --      1.2406                67.7095                33.2556

 - Thermochemistry -
 -------------------
 Temperature   298.150 Kelvin.  Pressure   1.00000 Atm.
 Atom     1 has atomic number  6 and mass  12.00000

 Molecular mass:   242.15315 amu.
 Principal axes and moments of inertia in atomic units:
                           1         2         3
     Eigenvalues --  2389.353179018.35845**********
           X            0.99984  -0.01793  -0.00080
           Y            0.01792   0.99973  -0.01482
           Z            0.00106   0.01481   0.99989
 This molecule is an asymmetric top.
 Rotational symmetry number  1.
 Warning -- assumption of classical behavior for rotation
           may cause significant error
 Rotational temperatures (Kelvin)      0.03625     0.00960     0.00821
 Rotational constants (GHZ):           0.75533     0.20012     0.17105
 Zero-point vibrational energy     791567.8 (Joules/Mol)
                                  189.18924 (Kcal/Mol)
 Warning -- explicit consideration of  30 degrees of freedom as
           vibrations may cause significant error
 Vibrational temperatures:     24.81    43.24    46.26    70.30    88.52
          (Kelvin)             93.94   116.71   152.76   167.14   182.16
                              252.98   306.06   329.28   394.39   431.21
                              465.56   477.57   515.67   535.82   585.39
                              603.70   634.89   646.15   683.63   686.20
                              728.04   803.03   842.20   860.39   875.15
                              927.61   956.96  1018.96  1037.39  1080.09
                             1200.08  1206.92  1215.68  1230.23  1279.79
                             1318.35  1370.54  1378.92  1400.44  1418.09
                             1423.08  1467.48  1471.33  1494.67  1513.90
                             1541.68  1547.20  1575.94  1648.16  1657.41
                             1703.33  1734.68  1777.36  1792.75  1802.04
                             1917.72  1939.12  1974.53  2009.50  2026.48
                             2070.14  2076.75  2077.26  2098.42  2102.73
                             2171.54  2172.15  2176.93  2179.21  2183.26
                             2192.33  2233.41  2331.93  2347.56  2390.53
                             2396.15  2420.80  2450.93  2499.20  4371.48
                             4395.03  4409.17  4451.15  4473.68  4491.24
                             4495.49  4507.10  4556.36  4567.69  4568.44
                             4573.35  4606.20  4613.21  4672.85  4880.58
                             5162.91  5338.69

 Zero-point correction=                           0.301492 (Hartree/Particle)
 Thermal correction to Energy=                    0.320414
 Thermal correction to Enthalpy=                  0.321358
 Thermal correction to Gibbs Free Energy=         0.251457
 Sum of electronic and zero-point Energies=           -763.072922
 Sum of electronic and thermal Energies=              -763.054001
 Sum of electronic and thermal Enthalpies=            -763.053056
 Sum of electronic and thermal Free Energies=         -763.122957

                     E (Thermal)             CV                S
                      KCal/Mol        Cal/Mol-Kelvin    Cal/Mol-Kelvin
 Total                  201.063             69.566            147.118
 Electronic               0.000              0.000              0.000
 Translational            0.889              2.981             42.354
 Rotational               0.889              2.981             33.785
 Vibrational            199.285             63.605             70.979
 Vibration     1          0.593              1.986              6.928
 Vibration     2          0.594              1.984              5.826
 Vibration     3          0.594              1.983              5.692
 Vibration     4          0.595              1.978              4.863
 Vibration     5          0.597              1.973              4.408
 Vibration     6          0.597              1.971              4.290
 Vibration     7          0.600              1.962              3.864
 Vibration     8          0.605              1.944              3.338
 Vibration     9          0.608              1.936              3.163
 Vibration    10          0.611              1.927              2.997
 Vibration    11          0.628              1.872              2.372
 Vibration    12          0.644              1.822              2.020
 Vibration    13          0.652              1.797              1.888
 Vibration    14          0.676              1.721              1.570
 Vibration    15          0.692              1.674              1.419
 Vibration    16          0.708              1.628              1.292
 Vibration    17          0.714              1.612              1.251
 Vibration    18          0.733              1.558              1.129
 Vibration    19          0.744              1.529              1.070
 Vibration    20          0.772              1.455              0.938
 Vibration    21          0.782              1.428              0.893
 Vibration    22          0.801              1.380              0.823
 Vibration    23          0.808              1.363              0.799
 Vibration    24          0.832              1.305              0.723
 Vibration    25          0.834              1.301              0.718
 Vibration    26          0.861              1.237              0.643
 Vibration    27          0.914              1.122              0.528
 Vibration    28          0.942              1.063              0.476
 Vibration    29          0.956              1.036              0.453
 Vibration    30          0.967              1.014              0.436

 Optimization completed.
    -- Stationary point found.
 Normal termination of Gaussian 16 at Fri Dec 11 21:12:13 2020.

 ----------------------------------------------------------------------
 # B3LYP/6-311++G(d,p) empiricaldispersion=gd3bj scf=xqc pop=npa geom=c
 heck
 ----------------------------------------------------------------------

 --------------------------------------
 CID_89384172_JID_8451_Energie_neutraal
 --------------------------------------
 Structure from the checkpoint file:  "JID_8451.chk"
 Charge =  0 Multiplicity = 1

 SCF Done:  E(RB3LYP) =  -763.587455303     A.U. after   16 cycles
 Normal termination of Gaussian 16 at Fri Dec 11 21:17:59 2020.

 ----------------------------------------------------------------------
 # B3LYP/6-311++G(d,p) empiricaldispersion=gd3bj scf=xqc pop=npa geom=c
 heck
 ----------------------------------------------------------------------

 ------------------------------------
 CID_89384172_JID_8451_Energie_kation
 ------------------------------------
 Structure from the checkpoint file:  "JID_8451.chk"
 Charge =  1 Multiplicity = 2

 SCF Done:  E(UB3LYP) =  -763.319239800     A.U. after   24 cycles
 Normal termination of Gaussian 16 at Fri Dec 11 21:29:59 2020.
 Gaussian 16:  ES64L-G16RevA.03 25-Dec-2016

 ----------------------------------------------------------------------
 # B3LYP/6-311++G(d,p) empiricaldispersion=gd3bj scf=xqc pop=npa geom=c
 heck
 ----------------------------------------------------------------------

 -----------------------------------
 CID_89384172_JID_8451_Energie_anion
 -----------------------------------
 Structure from the checkpoint file:  "JID_8451.chk"
 Charge = -1 Multiplicity = 2

                         Standard orientation:
 ---------------------------------------------------------------------
 Center     Atomic      Atomic             Coordinates (Angstroms)
 Number     Number       Type             X           Y           Z
 ---------------------------------------------------------------------
      1          6           0       -5.691358    0.829052    0.475400
      2          6           0       -4.362374    0.181707    0.171169
      3          6           0       -3.910861   -0.921258    0.909055
      4          6           0       -2.707636   -1.551269    0.609507
      5          6           0       -1.891335   -1.070828   -0.425672
      6          6           0       -2.338258    0.029473   -1.174698
      7          6           0       -3.555885    0.637956   -0.876927
      8          7           0       -0.705163   -1.759524   -0.737941
      9          6           0        0.438519   -1.167630   -0.711495
     10          6           0        0.736759    0.191326   -0.302617
     11          6           0        1.997235    0.703050   -0.209919
     12          6           0        2.222195    2.143487    0.143825
     13          7           0        3.388288    2.671493    0.155792
     14          6           0        1.034959    3.002684    0.504406
     15          7           0        3.154791    0.004462   -0.523124
     16          6           0        3.568928   -1.017250    0.142623
     17          6           0        2.945278   -1.592678    1.395216
     18          7           0        4.719858   -1.636525   -0.262376
     19          1           0       -5.729474    1.857576    0.101671
     20          1           0       -6.520938    0.281301    0.008526
     21          1           0       -5.887828    0.853990    1.553046
     22          1           0       -4.518843   -1.298695    1.728368
     23          1           0       -2.374896   -2.413970    1.178672
     24          1           0       -1.730899    0.390431   -1.999555
     25          1           0       -3.884301    1.487186   -1.472036
     26          1           0        1.287762   -1.776484   -1.027877
     27          1           0       -0.103655    0.833871   -0.076354
     28          1           0        4.073873    1.959488   -0.127480
     29          1           0        0.333273    3.084531   -0.333885
     30          1           0        0.480162    2.586359    1.353234
     31          1           0        1.393225    3.999691    0.765322
     32          1           0        3.722802   -1.823713    2.130285
     33          1           0        2.232871   -0.891429    1.830093
     34          1           0        2.405752   -2.518684    1.165488
     35          1           0        5.068323   -1.395380   -1.180522
     36          1           0        4.931365   -2.562336    0.077314
 ---------------------------------------------------------------------

 SCF Done:  E(UB3LYP) =  -763.612183785     A.U. after   26 cycles

 The electronic state is 2-A.
 Alpha  occ. eigenvalues --  -14.22621 -14.16718 -14.13682 -14.12455 -10.13717
 Alpha  occ. eigenvalues --  -10.07345 -10.07336 -10.06910 -10.06179 -10.05787
 Alpha  occ. eigenvalues --  -10.05765 -10.05654 -10.04779 -10.04642 -10.04606
 Alpha  occ. eigenvalues --  -10.04487 -10.03240 -10.00722  -0.85086  -0.78193
 Alpha  occ. eigenvalues --   -0.77469  -0.73725  -0.72933  -0.65391  -0.63417
 Alpha  occ. eigenvalues --   -0.62783  -0.61887  -0.58584  -0.57169  -0.51932
 Alpha  occ. eigenvalues --   -0.49127  -0.48153  -0.45912  -0.43805  -0.42253
 Alpha  occ. eigenvalues --   -0.39165  -0.37422  -0.36036  -0.35239  -0.34939
 Alpha  occ. eigenvalues --   -0.33524  -0.33033  -0.32412  -0.32129  -0.30377
 Alpha  occ. eigenvalues --   -0.30101  -0.29621  -0.29082  -0.28918  -0.25930
 Alpha  occ. eigenvalues --   -0.25629  -0.24964  -0.24477  -0.24082  -0.23414
 Alpha  occ. eigenvalues --   -0.22679  -0.20862  -0.18485  -0.15223  -0.14902
 Alpha  occ. eigenvalues --   -0.13854  -0.13021  -0.11392  -0.09547  -0.07516
 Alpha  occ. eigenvalues --    0.02958
 Alpha virt. eigenvalues --    0.06504   0.07030   0.08977   0.09242   0.09524
 Alpha virt. eigenvalues --    0.09564   0.10121   0.10535   0.10846   0.11212
 Alpha virt. eigenvalues --    0.11936   0.12055   0.12881   0.13185   0.13637

  Beta  occ. eigenvalues --  -14.22603 -14.16735 -14.13201 -14.12039 -10.13638
  Beta  occ. eigenvalues --  -10.07357 -10.07339 -10.06911 -10.06139 -10.05776
  Beta  occ. eigenvalues --  -10.05766 -10.05654 -10.04616 -10.04613 -10.04558
  Beta  occ. eigenvalues --  -10.04084 -10.03247 -10.00640  -0.84982  -0.77659
  Beta  occ. eigenvalues --   -0.77053  -0.73268  -0.72733  -0.65254  -0.63207
  Beta  occ. eigenvalues --   -0.62729  -0.61550  -0.58401  -0.57047  -0.51378
  Beta  occ. eigenvalues --   -0.49057  -0.47996  -0.45609  -0.43707  -0.41995
  Beta  occ. eigenvalues --   -0.38982  -0.37254  -0.35860  -0.35101  -0.34774
  Beta  occ. eigenvalues --   -0.33403  -0.32908  -0.32348  -0.31985  -0.30349
  Beta  occ. eigenvalues --   -0.29894  -0.29508  -0.28913  -0.28818  -0.25805
  Beta  occ. eigenvalues --   -0.25455  -0.24863  -0.24277  -0.23891  -0.23260
  Beta  occ. eigenvalues --   -0.22488  -0.19747  -0.17055  -0.14572  -0.13934
  Beta  occ. eigenvalues --   -0.13697  -0.12842  -0.10837  -0.08342  -0.06350
  Beta virt. eigenvalues --    0.06467   0.07009   0.08687   0.09055   0.09271
  Beta virt. eigenvalues --    0.09517   0.09716   0.10273   0.10677   0.10874
  Beta virt. eigenvalues --    0.11198   0.12012   0.12286   0.12928   0.13283

 Mulliken charges and spin densities:
               1          2
     1  C   -0.705389  -0.003341
     2  C    0.393131   0.037989
     3  C   -0.213151  -0.020266
     4  C    0.095269   0.037173
     5  C   -0.735639  -0.008408
     6  C    0.096225   0.002699
     7  C   -0.268270   0.006160
     8  N    0.076374   0.224438
     9  C   -0.892839   0.106144
    10  C    0.353513   0.119348
    11  C   -0.069207   0.266634
    12  C   -0.150966  -0.001355
    13  N   -0.362880   0.229634
    14  C   -0.515877   0.000746
    15  N   -0.135167   0.005102
    16  C   -0.002185  -0.050232
    17  C   -0.461498   0.010758
    18  N   -0.245622   0.003872
    19  H    0.130249   0.000389
    20  H    0.137182   0.002792
    21  H    0.123192   0.001336
    22  H    0.130591   0.002375
    23  H    0.142312  -0.002958
    24  H    0.181259   0.009535
    25  H    0.125324   0.002087
    26  H    0.176437  -0.007694
    27  H    0.044240  -0.001415
    28  H    0.199891   0.000967
    29  H    0.121141   0.005429
    30  H    0.127385   0.002162
    31  H    0.156252  -0.002781
    32  H    0.137131   0.000415
    33  H    0.175464   0.001036
    34  H    0.179445   0.000857
    35  H    0.219145   0.019825
    36  H    0.237540  -0.001451
 Sum of Mulliken charges =  -1.00000   1.00000

 Dipole moment (field-independent basis, Debye):
    X=             -2.1615    Y=             -3.7698    Z=              1.7464  Tot=              4.6833
 Quadrupole moment (field-independent basis, Debye-Ang):
   XX=           -151.4513   YY=           -137.5411   ZZ=           -117.5268
   XY=            -32.9032   XZ=             -2.5371   YZ=             -6.5076

 Summary of Natural Population Analysis:

                                       Natural Population
                Natural  -----------------------------------------------
    Atom  No    Charge         Core      Valence    Rydberg      Total
 -----------------------------------------------------------------------
      C    1   -0.28863      0.99965     2.28450    0.00448     3.28863
      C    2   -0.03821      0.99952     2.03076    0.00793     3.03821
      C    3   -0.10645      0.99953     2.09876    0.00816     3.10645
      C    4   -0.10062      0.99951     2.09190    0.00921     3.10062
      C    5    0.07801      0.99947     1.90976    0.01277     2.92199
      C    6   -0.11144      0.99952     2.10351    0.00842     3.11144
      C    7   -0.10306      0.99953     2.09541    0.00813     3.10306
      N    8   -0.18500      0.99964     2.67144    0.01391     3.68500
      C    9    0.07895      0.99960     1.90758    0.01387     2.92105
      C   10   -0.15065      0.99949     2.14205    0.00911     3.15065
      C   11    0.13521      0.99942     1.85089    0.01448     2.86479
      C   12    0.11419      0.99962     1.86760    0.01860     2.88581
      N   13   -0.26719      0.99972     2.75867    0.00881     3.76719
      C   14   -0.30716      0.99963     2.30307    0.00445     3.30716
      N   15   -0.27991      0.99959     2.76612    0.01419     3.77991
      C   16    0.24248      0.99961     1.74358    0.01433     2.75752
      C   17   -0.32582      0.99962     2.32155    0.00464     3.32582
      N   18   -0.40265      0.99970     2.89347    0.00948     3.90265
      H   19    0.09748      0.00000     0.40164    0.00089     0.40252
      H   20    0.09628      0.00000     0.40261    0.00111     0.40372
      H   21    0.09696      0.00000     0.40210    0.00094     0.40304
      H   22    0.09049      0.00000     0.40813    0.00138     0.40951
      H   23    0.09875      0.00000     0.39967    0.00158     0.40125
      H   24    0.10317      0.00000     0.39552    0.00131     0.39683
      H   25    0.09157      0.00000     0.40706    0.00137     0.40843
      H   26    0.07410      0.00000     0.42419    0.00171     0.42590
      H   27    0.10107      0.00000     0.39770    0.00124     0.39893
      H   28    0.16055      0.00000     0.33755    0.00190     0.33945
      H   29    0.10031      0.00000     0.39874    0.00095     0.39969
      H   30    0.09966      0.00000     0.39942    0.00092     0.40034
      H   31    0.10357      0.00000     0.39529    0.00114     0.39643
      H   32    0.09701      0.00000     0.40183    0.00116     0.40299
      H   33    0.12155      0.00000     0.37774    0.00071     0.37845
      H   34    0.10940      0.00000     0.38954    0.00106     0.39060
      H   35    0.19206      0.00000     0.30552    0.00242     0.30794
      H   36    0.18399      0.00000     0.31488    0.00113     0.31601
 =======================================================================
   * Total *    0.00000     17.99236    46.79978    0.20786    65.00000

 Normal termination of Gaussian 16 at Fri Dec 11 21:42:54 2020.
