 Gaussian 16, Revision A.03,

 -----------------------------------------------------------
 # opt freq B3LYP/6-31G(d) empiricaldispersion=gd3bj scf=xqc
 -----------------------------------------------------------

 ------------------------------
 CID_149891179_JID_552_neutraal
 ------------------------------
 Symbolic Z-matrix:
 Charge =  0 Multiplicity = 1

 SCF Done:  E(RB3LYP) =  -473.470401706     A.U. after   16 cycles
 SCF Done:  E(RB3LYP) =  -473.472606133     A.U. after   15 cycles
 SCF Done:  E(RB3LYP) =  -473.474160784     A.U. after   14 cycles
 SCF Done:  E(RB3LYP) =  -473.474286711     A.U. after   14 cycles
 SCF Done:  E(RB3LYP) =  -473.474571788     A.U. after   13 cycles
 SCF Done:  E(RB3LYP) =  -473.474559408     A.U. after   13 cycles
 SCF Done:  E(RB3LYP) =  -473.474739158     A.U. after   12 cycles
 SCF Done:  E(RB3LYP) =  -473.474772046     A.U. after   11 cycles
 SCF Done:  E(RB3LYP) =  -473.474789323     A.U. after   11 cycles
 SCF Done:  E(RB3LYP) =  -473.474802269     A.U. after   11 cycles
 SCF Done:  E(RB3LYP) =  -473.474803627     A.U. after    9 cycles
 SCF Done:  E(RB3LYP) =  -473.474804011     A.U. after    8 cycles
 Optimization completed.
    -- Stationary point found.
 Normal termination of Gaussian 16 at Tue Dec  8 12:13:52 2020.

 --------------------------------------------------------------------
 #N Geom=AllCheck Guess=TCheck SCRF=Check GenChk RB3LYP/6-31G(d) Freq
 --------------------------------------------------------------------

 Structure from the checkpoint file:  "JID_552.chk"
 ------------------------------
 CID_149891179_JID_552_neutraal
 ------------------------------
 Charge =  0 Multiplicity = 1

 SCF Done:  E(RB3LYP) =  -473.474804011     A.U. after    1 cycles

  Exact polarizability: 107.577   9.213  82.065  12.604  11.667  68.522
 Approx polarizability: 159.204  27.919 118.779  41.489  36.448 129.689

                      1                      2                      3
                      A                      A                      A
 Frequencies --     50.4326                55.7631                77.1730
 Red. masses --      4.5555                 5.2237                 3.7337
 Frc consts  --      0.0068                 0.0096                 0.0131
 IR Inten    --      2.9799                 0.2104                 0.4589

                      4                      5                      6
                      A                      A                      A
 Frequencies --    125.5310               126.9662               145.6527
 Red. masses --      1.1018                 2.6330                 1.9555
 Frc consts  --      0.0102                 0.0250                 0.0244
 IR Inten    --      0.5023                 1.2041                 0.3844

                      7                      8                      9
                      A                      A                      A
 Frequencies --    209.4439               226.6737               260.3539
 Red. masses --      1.5060                 3.5856                 4.5690
 Frc consts  --      0.0389                 0.1085                 0.1825
 IR Inten    --      1.6729                 2.0604                 3.5477

                     10                     11                     12
                      A                      A                      A
 Frequencies --    315.4577               352.5009               416.3235
 Red. masses --      4.0242                 4.1146                 4.8209
 Frc consts  --      0.2359                 0.3012                 0.4923
 IR Inten    --      1.4776                 3.0052                 5.5417

                     13                     14                     15
                      A                      A                      A
 Frequencies --    474.9628               561.7538               582.6160
 Red. masses --      3.3834                 9.8574                 5.3633
 Frc consts  --      0.4497                 1.8328                 1.0726
 IR Inten    --      6.3524                 4.8600                33.7944

                     16                     17                     18
                      A                      A                      A
 Frequencies --    603.9449               722.2386               807.6688
 Red. masses --      2.4578                 4.1559                 2.1193
 Frc consts  --      0.5282                 1.2772                 0.8145
 IR Inten    --      0.0906                 6.9266                 8.1490

                     19                     20                     21
                      A                      A                      A
 Frequencies --    871.7653               934.3903               942.6183
 Red. masses --      3.0012                 3.4868                 1.8728
 Frc consts  --      1.3438                 1.7936                 0.9804
 IR Inten    --     10.7039                22.2710                15.6533

                     22                     23                     24
                      A                      A                      A
 Frequencies --    995.5222              1010.2325              1041.5695
 Red. masses --      2.0152                 1.0914                 1.9802
 Frc consts  --      1.1767                 0.6562                 1.2657
 IR Inten    --      6.6170                27.7973                 6.9906

                     25                     26                     27
                      A                      A                      A
 Frequencies --   1079.8041              1094.1660              1155.0331
 Red. masses --      1.5435                 3.1801                 2.4574
 Frc consts  --      1.0603                 2.2432                 1.9316
 IR Inten    --      0.8795                 1.3850                 3.5598

                     28                     29                     30
                      A                      A                      A
 Frequencies --   1189.2134              1267.6311              1313.1740
 Red. masses --      2.1667                 1.4018                 3.1313
 Frc consts  --      1.8054                 1.3271                 3.1814
 IR Inten    --     67.4533                27.1093                83.9244

                     31                     32                     33
                      A                      A                      A
 Frequencies --   1343.5625              1356.9113              1391.3053
 Red. masses --      1.3360                 1.4962                 1.3965
 Frc consts  --      1.4210                 1.6231                 1.5927
 IR Inten    --      3.4801                30.3221                 7.7077

                     34                     35                     36
                      A                      A                      A
 Frequencies --   1409.4246              1443.0174              1494.0482
 Red. masses --      1.3177                 1.2578                 1.0504
 Frc consts  --      1.5423                 1.5432                 1.3814
 IR Inten    --     38.6843                 2.6608                 8.1450

                     37                     38                     39
                      A                      A                      A
 Frequencies --   1504.1465              1508.2779              1518.6446
 Red. masses --      1.0520                 1.0448                 1.0562
 Frc consts  --      1.4023                 1.4004                 1.4351
 IR Inten    --      8.9125                 7.6815                10.7398

                     40                     41                     42
                      A                      A                      A
 Frequencies --   1747.8467              1829.5241              2261.5061
 Red. masses --      5.7616                10.6703                13.9060
 Frc consts  --     10.3705                21.0428                41.9033
 IR Inten    --      6.9760               103.1902               495.2304

                     43                     44                     45
                      A                      A                      A
 Frequencies --   3038.6795              3053.4780              3087.4658
 Red. masses --      1.0375                 1.0397                 1.1000
 Frc consts  --      5.6441                 5.7114                 6.1781
 IR Inten    --     25.9665                 1.6757                18.2887

                     46                     47                     48
                      A                      A                      A
 Frequencies --   3105.0403              3118.5119              3124.8752
 Red. masses --      1.0854                 1.0962                 1.0977
 Frc consts  --      6.1655                 6.2809                 6.3155
 IR Inten    --     12.2328                 7.5914                 3.4022

                     49                     50                     51
                      A                      A                      A
 Frequencies --   3144.2794              3158.1780              3172.0196
 Red. masses --      1.0931                 1.0879                 1.1031
 Frc consts  --      6.3674                 6.3931                 6.5394
 IR Inten    --     24.3002                15.1507                 8.0311

 - Thermochemistry -
 -------------------
 Temperature   298.150 Kelvin.  Pressure   1.00000 Atm.
 Atom     1 has atomic number  6 and mass  12.00000

 Molecular mass:   139.07456 amu.
 Principal axes and moments of inertia in atomic units:
                           1         2         3
     Eigenvalues --  1165.856901800.235572593.18226
           X            0.99840  -0.05542  -0.01100
           Y            0.05563   0.99827   0.01929
           Z            0.00991  -0.01987   0.99975
 This molecule is an asymmetric top.
 Rotational symmetry number  1.
 Warning -- assumption of classical behavior for rotation
           may cause significant error
 Rotational temperatures (Kelvin)      0.07429     0.04811     0.03340
 Rotational constants (GHZ):           1.54800     1.00250     0.69596
 Zero-point vibrational energy     393698.9 (Joules/Mol)
                                   94.09630 (Kcal/Mol)
 Warning -- explicit consideration of  16 degrees of freedom as
           vibrations may cause significant error
 Vibrational temperatures:     72.56    80.23   111.03   180.61   182.68
          (Kelvin)            209.56   301.34   326.13   374.59   453.87
                              507.17   599.00   683.37   808.24   838.25
                              868.94  1039.14  1162.06  1254.28  1344.38
                             1356.22  1432.33  1453.50  1498.59  1553.60
                             1574.26  1661.84  1711.01  1823.84  1889.36
                             1933.09  1952.29  2001.78  2027.85  2076.18
                             2149.60  2164.13  2170.08  2184.99  2514.76
                             2632.28  3253.80  4371.98  4393.27  4442.17
                             4467.46  4486.84  4496.00  4523.92  4543.91
                             4563.83

 Zero-point correction=                           0.149952 (Hartree/Particle)
 Thermal correction to Energy=                    0.161201
 Thermal correction to Enthalpy=                  0.162145
 Thermal correction to Gibbs Free Energy=         0.111961
 Sum of electronic and zero-point Energies=           -473.324852
 Sum of electronic and thermal Energies=              -473.313603
 Sum of electronic and thermal Enthalpies=            -473.312659
 Sum of electronic and thermal Free Energies=         -473.362843

                     E (Thermal)             CV                S
                      KCal/Mol        Cal/Mol-Kelvin    Cal/Mol-Kelvin
 Total                  101.155             38.362            105.621
 Electronic               0.000              0.000              0.000
 Translational            0.889              2.981             40.701
 Rotational               0.889              2.981             30.077
 Vibrational             99.377             32.400             34.842
 Vibration     1          0.595              1.977              4.800
 Vibration     2          0.596              1.975              4.602
 Vibration     3          0.599              1.964              3.962
 Vibration     4          0.610              1.928              3.013
 Vibration     5          0.611              1.926              2.991
 Vibration     6          0.617              1.907              2.728
 Vibration     7          0.642              1.826              2.049
 Vibration     8          0.650              1.800              1.905
 Vibration     9          0.668              1.745              1.659
 Vibration    10          0.703              1.644              1.334
 Vibration    11          0.729              1.570              1.155
 Vibration    12          0.780              1.435              0.905
 Vibration    13          0.832              1.306              0.724
 Vibration    14          0.917              1.114              0.520
 Vibration    15          0.939              1.069              0.481
 Vibration    16          0.962              1.023              0.443

                           ! Non-Optimized Parameters !
 Normal termination of Gaussian 16 at Tue Dec  8 12:17:20 2020.

 ----------------------------------------------------------------------
 # B3LYP/6-311++G(d,p) empiricaldispersion=gd3bj scf=xqc pop=npa geom=c
 heck
 ----------------------------------------------------------------------

 --------------------------------------
 CID_149891179_JID_552_Energie_neutraal
 --------------------------------------
 Structure from the checkpoint file:  "JID_552.chk"
 Charge =  0 Multiplicity = 1

 SCF Done:  E(RB3LYP) =  -473.611694375     A.U. after   15 cycles
 Normal termination of Gaussian 16 at Tue Dec  8 12:22:12 2020.

 ----------------------------------------------------------------------
 # B3LYP/6-311++G(d,p) empiricaldispersion=gd3bj scf=xqc pop=npa geom=c
 heck
 ----------------------------------------------------------------------

 ------------------------------------
 CID_149891179_JID_552_Energie_kation
 ------------------------------------
 Structure from the checkpoint file:  "JID_552.chk"
 Charge =  1 Multiplicity = 2

 SCF Done:  E(UB3LYP) =  -473.285917488     A.U. after   26 cycles
 Normal termination of Gaussian 16 at Tue Dec  8 12:27:51 2020.
 Gaussian 16:  ES64L-G16RevA.03 25-Dec-2016

 ----------------------------------------------------------------------
 # B3LYP/6-311++G(d,p) empiricaldispersion=gd3bj scf=xqc pop=npa geom=c
 heck
 ----------------------------------------------------------------------

 -----------------------------------
 CID_149891179_JID_552_Energie_anion
 -----------------------------------
 Structure from the checkpoint file:  "JID_552.chk"
 Charge = -1 Multiplicity = 2

                         Standard orientation:
 ---------------------------------------------------------------------
 Center     Atomic      Atomic             Coordinates (Angstroms)
 Number     Number       Type             X           Y           Z
 ---------------------------------------------------------------------
      1          6           0        3.460506   -0.804394   -0.472847
      2          6           0        2.289954   -0.279907    0.303163
      3          6           0        1.014474   -0.372209   -0.079601
      4          6           0       -0.149198    0.177441    0.708061
      5          6           0       -0.788254    1.319939   -0.113476
      6          8           0       -1.731797    1.101149   -0.842544
      7          6           0       -0.136160    2.677256    0.023884
      8          7           0       -1.143102   -0.845905    1.077793
      9          7           0       -1.667636   -1.468531    0.142944
     10          7           0       -2.214791   -2.151585   -0.588624
     11          1           0        3.143635   -1.281139   -1.405606
     12          1           0        4.022287   -1.540828    0.116180
     13          1           0        4.162626    0.002360   -0.721062
     14          1           0        2.518156    0.205609    1.253637
     15          1           0        0.755441   -0.854746   -1.022375
     16          1           0        0.211233    0.576626    1.659974
     17          1           0       -0.374520    3.096514    1.010013
     18          1           0        0.953680    2.589756   -0.039186
     19          1           0       -0.507399    3.350050   -0.751117
 ---------------------------------------------------------------------

 SCF Done:  E(UB3LYP) =  -473.609613097     A.U. after   32 cycles

 The electronic state is 2-A.
 Alpha  occ. eigenvalues --  -18.96252 -14.33135 -14.23000 -14.21667 -10.10465
 Alpha  occ. eigenvalues --  -10.08995 -10.05824 -10.04838 -10.04709 -10.04663
 Alpha  occ. eigenvalues --   -0.99410  -0.90317  -0.83531  -0.69002  -0.64109
 Alpha  occ. eigenvalues --   -0.60389  -0.55109  -0.45144  -0.43748  -0.38491
 Alpha  occ. eigenvalues --   -0.37528  -0.36651  -0.33484  -0.32718  -0.31148
 Alpha  occ. eigenvalues --   -0.30886  -0.30429  -0.29781  -0.28056  -0.26278
 Alpha  occ. eigenvalues --   -0.25630  -0.23769  -0.22492  -0.17340  -0.15319
 Alpha  occ. eigenvalues --   -0.12088  -0.10084   0.05001
 Alpha virt. eigenvalues --    0.07419   0.08533   0.09793   0.10019   0.10591
 Alpha virt. eigenvalues --    0.11659   0.11781   0.12987   0.13517   0.13992
 Alpha virt. eigenvalues --    0.14427   0.15021   0.16661   0.17254   0.17895

  Beta  occ. eigenvalues --  -18.95944 -14.32993 -14.22796 -14.21685 -10.10188
  Beta  occ. eigenvalues --  -10.08974 -10.05818 -10.04716 -10.04673 -10.04624
  Beta  occ. eigenvalues --   -0.99119  -0.89740  -0.83367  -0.68749  -0.63819
  Beta  occ. eigenvalues --   -0.60240  -0.54963  -0.44797  -0.43331  -0.38115
  Beta  occ. eigenvalues --   -0.37155  -0.36399  -0.33095  -0.32451  -0.30752
  Beta  occ. eigenvalues --   -0.30513  -0.30185  -0.29512  -0.27967  -0.26142
  Beta  occ. eigenvalues --   -0.25384  -0.23557  -0.21162  -0.16925  -0.14939
  Beta  occ. eigenvalues --   -0.11760  -0.09811
  Beta virt. eigenvalues --    0.07626   0.08811   0.09720   0.10432   0.10835
  Beta virt. eigenvalues --    0.11506   0.11838   0.12124   0.13369   0.13911
  Beta virt. eigenvalues --    0.14091   0.14501   0.16025   0.16631   0.17223

 Mulliken charges and spin densities:
               1          2
     1  C    0.581938  -1.291501
     2  C   -0.067553   0.037748
     3  C   -0.086463   0.058621
     4  C   -0.206028   0.177567
     5  C   -0.097295   0.273464
     6  O   -0.338165   0.106089
     7  C   -0.053868  -0.609166
     8  N   -0.462564   0.098618
     9  N    0.656812  -0.030373
    10  N   -0.271304   0.092279
    11  H    0.046039   0.077596
    12  H   -0.009629   0.136838
    13  H   -0.228756   0.373103
    14  H   -0.321319   0.438738
    15  H    0.152159   0.034990
    16  H   -0.321745   0.601483
    17  H   -0.254383   0.419309
    18  H    0.194848  -0.041395
    19  H    0.087277   0.045988
 Sum of Mulliken charges =  -1.00000   1.00000

 Dipole moment (field-independent basis, Debye):
    X=              1.1084    Y=             -0.3243    Z=             -1.3728  Tot=              1.7939
 Quadrupole moment (field-independent basis, Debye-Ang):
   XX=           -102.6066   YY=            -85.8917   ZZ=            -82.6537
   XY=             -2.8787   XZ=             -6.0152   YZ=             -2.8704

 Summary of Natural Population Analysis:

                                       Natural Population
                Natural  -----------------------------------------------
    Atom  No    Charge         Core      Valence    Rydberg      Total
 -----------------------------------------------------------------------
      C    1   -0.30075      0.99966     2.29505    0.00605     3.30075
      C    2   -0.05754      0.99952     2.04869    0.00933     3.05754
      C    3   -0.10113      0.99948     2.09095    0.01070     3.10113
      C    4   -0.06714      0.99949     2.05149    0.01616     3.06714
      C    5    0.31876      0.99967     1.65876    0.02280     2.68124
      O    6   -0.26519      0.99987     3.25887    0.00646     4.26519
      C    7   -0.33560      0.99962     2.33075    0.00523     3.33560
      N    8   -0.18949      0.99970     2.67612    0.01366     3.68949
      N    9    0.12859      0.99970     2.35426    0.01745     3.37141
      N   10   -0.03789      0.99982     2.52560    0.01247     3.53789
      H   11    0.09730      0.00000     0.40191    0.00078     0.40270
      H   12    0.09929      0.00000     0.39978    0.00093     0.40071
      H   13    0.10217      0.00000     0.39619    0.00165     0.39783
      H   14    0.08888      0.00000     0.40927    0.00186     0.41112
      H   15    0.09288      0.00000     0.40590    0.00123     0.40712
      H   16    0.10559      0.00000     0.39089    0.00352     0.39441
      H   17    0.11050      0.00000     0.38706    0.00245     0.38950
      H   18    0.10736      0.00000     0.39143    0.00121     0.39264
      H   19    0.10342      0.00000     0.39552    0.00106     0.39658
 =======================================================================
   * Total *    0.00000      9.99653    26.86848    0.13498    37.00000

 Normal termination of Gaussian 16 at Tue Dec  8 12:40:14 2020.
