 Gaussian 16, Revision A.03,

 -----------------------------------------------------------
 # opt freq B3LYP/6-31G(d) empiricaldispersion=gd3bj scf=xqc
 -----------------------------------------------------------

 -------------------------------
 CID_150868173_JID_3024_neutraal
 -------------------------------
 Symbolic Z-matrix:
 Charge =  0 Multiplicity = 1

 SCF Done:  E(RB3LYP) =  -621.124560948     A.U. after   15 cycles
 SCF Done:  E(RB3LYP) =  -621.132531583     A.U. after   14 cycles
 SCF Done:  E(RB3LYP) =  -621.135052663     A.U. after   14 cycles
 SCF Done:  E(RB3LYP) =  -621.136238376     A.U. after   13 cycles
 SCF Done:  E(RB3LYP) =  -621.136547338     A.U. after   12 cycles
 SCF Done:  E(RB3LYP) =  -621.136800110     A.U. after   12 cycles
 SCF Done:  E(RB3LYP) =  -621.136865016     A.U. after   12 cycles
 SCF Done:  E(RB3LYP) =  -621.136982691     A.U. after   12 cycles
 SCF Done:  E(RB3LYP) =  -621.137012196     A.U. after   11 cycles
 SCF Done:  E(RB3LYP) =  -621.137014264     A.U. after    9 cycles
 SCF Done:  E(RB3LYP) =  -621.137014628     A.U. after    8 cycles
 SCF Done:  E(RB3LYP) =  -621.137014725     A.U. after    8 cycles
 SCF Done:  E(RB3LYP) =  -621.137014751     A.U. after    7 cycles
 Optimization completed.
    -- Stationary point found.
 Normal termination of Gaussian 16 at Wed Dec  9 22:20:29 2020.

 --------------------------------------------------------------------
 #N Geom=AllCheck Guess=TCheck SCRF=Check GenChk RB3LYP/6-31G(d) Freq
 --------------------------------------------------------------------

 Structure from the checkpoint file:  "JID_3024.chk"
 -------------------------------
 CID_150868173_JID_3024_neutraal
 -------------------------------
 Charge =  0 Multiplicity = 1

 SCF Done:  E(RB3LYP) =  -621.137014751     A.U. after    1 cycles

  Exact polarizability: 175.919  -6.263 111.407  -0.004   0.002  56.206
 Approx polarizability: 284.702   0.537 170.674  -0.006   0.003  84.513

                      1                      2                      3
                      A                      A                      A
 Frequencies --     51.9006                76.2055               103.4289
 Red. masses --      3.3114                 5.0941                 2.0542
 Frc consts  --      0.0053                 0.0174                 0.0129
 IR Inten    --      0.3528                 0.3815                 1.4108

                      4                      5                      6
                      A                      A                      A
 Frequencies --    104.4263               136.7657               144.8071
 Red. masses --      5.1295                 3.8185                 1.1090
 Frc consts  --      0.0330                 0.0421                 0.0137
 IR Inten    --      0.4009                 1.4418                 0.1707

                      7                      8                      9
                      A                      A                      A
 Frequencies --    149.4686               240.6240               266.3404
 Red. masses --      5.1063                 2.7661                 3.4346
 Frc consts  --      0.0672                 0.0944                 0.1435
 IR Inten    --      2.1788                 0.1519                 0.9030

                     10                     11                     12
                      A                      A                      A
 Frequencies --    270.3376               325.2332               337.4827
 Red. masses --      1.7679                 3.1407                 4.5373
 Frc consts  --      0.0761                 0.1957                 0.3045
 IR Inten    --      1.5036                 0.4085                 0.3998

                     13                     14                     15
                      A                      A                      A
 Frequencies --    396.4790               459.7874               468.4791
 Red. masses --      7.0186                 8.6443                 3.4663
 Frc consts  --      0.6500                 1.0767                 0.4482
 IR Inten    --      7.1258                 1.1098                 0.0050

                     16                     17                     18
                      A                      A                      A
 Frequencies --    542.8431               563.4919               601.8296
 Red. masses --      4.6122                13.9309                 6.4652
 Frc consts  --      0.8008                 2.6062                 1.3797
 IR Inten    --      0.0794                 9.4196                 0.3326

                     19                     20                     21
                      A                      A                      A
 Frequencies --    682.7709               715.7065               796.7650
 Red. masses --      8.0198                 9.2034                 9.1159
 Frc consts  --      2.2027                 2.7776                 3.4096
 IR Inten    --      5.4367                 0.0005                22.3205

                     22                     23                     24
                      A                      A                      A
 Frequencies --    802.3220               821.4042               833.2526
 Red. masses --      7.8313                 1.0948                 6.8897
 Frc consts  --      2.9702                 0.4352                 2.8184
 IR Inten    --      1.1245                 0.3430                10.9886

                     25                     26                     27
                      A                      A                      A
 Frequencies --    916.2852               964.3350              1007.0739
 Red. masses --      2.7559                 1.3636                 3.1534
 Frc consts  --      1.3633                 0.7471                 1.8843
 IR Inten    --     18.4925                 4.7209                10.8146

                     28                     29                     30
                      A                      A                      A
 Frequencies --   1038.7689              1066.6549              1079.3715
 Red. masses --      1.8381                 3.7589                 1.4700
 Frc consts  --      1.1686                 2.5198                 1.0091
 IR Inten    --     27.1769               125.5496                 1.8100

                     31                     32                     33
                      A                      A                      A
 Frequencies --   1144.9036              1191.5275              1204.1832
 Red. masses --      2.1603                 1.5282                 7.4510
 Frc consts  --      1.6684                 1.2784                 6.3658
 IR Inten    --      9.6785                 3.9178                34.9206

                     34                     35                     36
                      A                      A                      A
 Frequencies --   1275.8643              1304.0771              1306.6936
 Red. masses --      3.5527                 9.5818                 1.1029
 Frc consts  --      3.4073                 9.6007                 1.1096
 IR Inten    --     73.4051                43.9459                 0.5135

                     37                     38                     39
                      A                      A                      A
 Frequencies --   1343.1535              1382.6826              1401.3651
 Red. masses --      2.2566                 6.0321                 1.4080
 Frc consts  --      2.3986                 6.7946                 1.6292
 IR Inten    --    361.3550                38.1245                81.1534

                     40                     41                     42
                      A                      A                      A
 Frequencies --   1439.6750              1445.9738              1456.0034
 Red. masses --      1.8759                 1.3831                 2.5217
 Frc consts  --      2.2908                 1.7039                 3.1497
 IR Inten    --    238.0023               127.2857               350.3054

                     43                     44                     45
                      A                      A                      A
 Frequencies --   1496.1693              1506.2453              1516.0124
 Red. masses --      2.7098                 1.0435                 1.0399
 Frc consts  --      3.5740                 1.3949                 1.4082
 IR Inten    --    141.5733                 6.3200                 6.5763

                     46                     47                     48
                      A                      A                      A
 Frequencies --   1522.8656              1526.8614              1547.7354
 Red. masses --      1.1594                 1.0745                 1.1456
 Frc consts  --      1.5842                 1.4758                 1.6169
 IR Inten    --      8.6898                 3.8814                 0.3066

                     49                     50                     51
                      A                      A                      A
 Frequencies --   1607.2403              1650.5494              2293.2641
 Red. masses --      7.6918                 6.2002                13.9932
 Frc consts  --     11.7068                 9.9521                43.3585
 IR Inten    --    220.6787               228.8964               705.0470

                     52                     53                     54
                      A                      A                      A
 Frequencies --   3051.1091              3063.2366              3077.2075
 Red. masses --      1.0358                 1.0352                 1.0580
 Frc consts  --      5.6813                 5.7234                 5.9028
 IR Inten    --     26.6694                18.5135                14.6051

                     55                     56                     57
                      A                      A                      A
 Frequencies --   3105.2719              3115.6438              3131.6262
 Red. masses --      1.1009                 1.1078                 1.1028
 Frc consts  --      6.2545                 6.3360                 6.3724
 IR Inten    --     13.5723                 3.6973                17.0399

                     58                     59                     60
                      A                      A                      A
 Frequencies --   3135.8606              3143.5807              3174.5831
 Red. masses --      1.1020                 1.1056                 1.0914
 Frc consts  --      6.3846                 6.4371                 6.4805
 IR Inten    --     21.8737                38.3381                25.5452

 - Thermochemistry -
 -------------------
 Temperature   298.150 Kelvin.  Pressure   1.00000 Atm.
 Atom     1 has atomic number  6 and mass  12.00000

 Molecular mass:   179.08071 amu.
 Principal axes and moments of inertia in atomic units:
                           1         2         3
     Eigenvalues --  1232.202323845.564625044.07225
           X            0.99974   0.02276  -0.00000
           Y           -0.02276   0.99974   0.00000
           Z            0.00000  -0.00000   1.00000
 This molecule is an asymmetric top.
 Rotational symmetry number  1.
 Warning -- assumption of classical behavior for rotation
           may cause significant error
 Rotational temperatures (Kelvin)      0.07029     0.02252     0.01717
 Rotational constants (GHZ):           1.46465     0.46930     0.35779
 Zero-point vibrational energy     445763.3 (Joules/Mol)
                                  106.53999 (Kcal/Mol)
 Warning -- explicit consideration of  18 degrees of freedom as
           vibrations may cause significant error
 Vibrational temperatures:     74.67   109.64   148.81   150.25   196.78
          (Kelvin)            208.35   215.05   346.20   383.20   388.96
                              467.94   485.56   570.44   661.53   674.04
                              781.03   810.74   865.90   982.35  1029.74
                             1146.37  1154.36  1181.82  1198.86  1318.33
                             1387.46  1448.95  1494.56  1534.68  1552.97
                             1647.26  1714.34  1732.55  1835.68  1876.28
                             1880.04  1932.50  1989.37  2016.25  2071.37
                             2080.43  2094.86  2152.65  2167.15  2181.20
                             2191.06  2196.81  2226.85  2312.46  2374.77
                             3299.50  4389.87  4407.31  4427.42  4467.79
                             4482.72  4505.71  4511.80  4522.91  4567.52

 Zero-point correction=                           0.169782 (Hartree/Particle)
 Thermal correction to Energy=                    0.182089
 Thermal correction to Enthalpy=                  0.183034
 Thermal correction to Gibbs Free Energy=         0.130466
 Sum of electronic and zero-point Energies=           -620.967232
 Sum of electronic and thermal Energies=              -620.954925
 Sum of electronic and thermal Enthalpies=            -620.953981
 Sum of electronic and thermal Free Energies=         -621.006549

                     E (Thermal)             CV                S
                      KCal/Mol        Cal/Mol-Kelvin    Cal/Mol-Kelvin
 Total                  114.263             44.053            110.639
 Electronic               0.000              0.000              0.000
 Translational            0.889              2.981             41.455
 Rotational               0.889              2.981             31.547
 Vibrational            112.485             38.092             37.637
 Vibration     1          0.596              1.977              4.744
 Vibration     2          0.599              1.965              3.986
 Vibration     3          0.605              1.946              3.389
 Vibration     4          0.605              1.946              3.370
 Vibration     5          0.614              1.917              2.849
 Vibration     6          0.616              1.908              2.739
 Vibration     7          0.618              1.903              2.679
 Vibration     8          0.658              1.778              1.798
 Vibration     9          0.672              1.735              1.620
 Vibration    10          0.674              1.728              1.594
 Vibration    11          0.709              1.625              1.284
 Vibration    12          0.718              1.601              1.224
 Vibration    13          0.763              1.478              0.976
 Vibration    14          0.818              1.339              0.767
 Vibration    15          0.826              1.320              0.742
 Vibration    16          0.898              1.155              0.559
 Vibration    17          0.919              1.110              0.517
 Vibration    18          0.960              1.028              0.447

                           ! Non-Optimized Parameters !
 Normal termination of Gaussian 16 at Wed Dec  9 22:24:55 2020.

 ----------------------------------------------------------------------
 # B3LYP/6-311++G(d,p) empiricaldispersion=gd3bj scf=xqc pop=npa geom=c
 heck
 ----------------------------------------------------------------------

 ---------------------------------------
 CID_150868173_JID_3024_Energie_neutraal
 ---------------------------------------
 Structure from the checkpoint file:  "JID_3024.chk"
 Charge =  0 Multiplicity = 1

 SCF Done:  E(RB3LYP) =  -621.304527363     A.U. after   15 cycles
 Normal termination of Gaussian 16 at Wed Dec  9 22:26:29 2020.

 ----------------------------------------------------------------------
 # B3LYP/6-311++G(d,p) empiricaldispersion=gd3bj scf=xqc pop=npa geom=c
 heck
 ----------------------------------------------------------------------

 -------------------------------------
 CID_150868173_JID_3024_Energie_kation
 -------------------------------------
 Structure from the checkpoint file:  "JID_3024.chk"
 Charge =  1 Multiplicity = 2

 SCF Done:  E(UB3LYP) =  -620.991663088     A.U. after   23 cycles
 Normal termination of Gaussian 16 at Wed Dec  9 22:29:33 2020.
 Gaussian 16:  ES64L-G16RevA.03 25-Dec-2016

 ----------------------------------------------------------------------
 # B3LYP/6-311++G(d,p) empiricaldispersion=gd3bj scf=xqc pop=npa geom=c
 heck
 ----------------------------------------------------------------------

 ------------------------------------
 CID_150868173_JID_3024_Energie_anion
 ------------------------------------
 Structure from the checkpoint file:  "JID_3024.chk"
 Charge = -1 Multiplicity = 2

                         Standard orientation:
 ---------------------------------------------------------------------
 Center     Atomic      Atomic             Coordinates (Angstroms)
 Number     Number       Type             X           Y           Z
 ---------------------------------------------------------------------
      1          6           0       -3.988838   -1.673873    0.000004
      2          6           0       -2.478368   -1.549522   -0.000003
      3          8           0       -2.173350   -0.136938    0.000063
      4          6           0       -0.882703    0.222237   -0.000052
      5          7           0        0.059005   -0.713708   -0.000064
      6          6           0        1.321143   -0.269230   -0.000036
      7          7           0        1.731445    0.997440    0.000021
      8          6           0        0.747886    1.915283   -0.000020
      9          6           0       -0.603435    1.609102   -0.000051
     10          6           0       -1.696512    2.636703    0.000022
     11          7           0        2.282675   -1.300433    0.000043
     12          7           0        3.469799   -0.925506    0.000021
     13          7           0        4.589033   -0.737773    0.000008
     14          1           0       -4.418911   -1.199909    0.887912
     15          1           0       -4.273338   -2.731310   -0.000339
     16          1           0       -4.418904   -1.199342   -0.887607
     17          1           0       -2.024048   -2.010118    0.882595
     18          1           0       -2.024075   -2.010086   -0.882622
     19          1           0        1.069515    2.955581   -0.000050
     20          1           0       -2.343320    2.527713   -0.878166
     21          1           0       -2.340439    2.530774    0.880737
     22          1           0       -1.278424    3.647865   -0.002348
 ---------------------------------------------------------------------

 SCF Done:  E(UB3LYP) =  -621.298465948     A.U. after   33 cycles
 SCF Done:  E(UB3LYP) =  -621.298466717     a.u. after    3 cycles

 The electronic state is 2-A.
 Alpha  occ. eigenvalues --  -19.04892 -14.34037 -14.25060 -14.23485 -14.18257
 Alpha  occ. eigenvalues --  -14.18052 -10.15148 -10.13568 -10.11739 -10.09339
 Alpha  occ. eigenvalues --  -10.06312 -10.06116 -10.05613  -1.01365  -0.97380
 Alpha  occ. eigenvalues --   -0.88202  -0.83227  -0.76235  -0.69790  -0.65740
 Alpha  occ. eigenvalues --   -0.60629  -0.55267  -0.54024  -0.50045  -0.46328
 Alpha  occ. eigenvalues --   -0.42497  -0.39076  -0.38776  -0.38123  -0.37112
 Alpha  occ. eigenvalues --   -0.33020  -0.32905  -0.32768  -0.31396  -0.29728
 Alpha  occ. eigenvalues --   -0.29134  -0.29025  -0.27859  -0.27611  -0.24335
 Alpha  occ. eigenvalues --   -0.23198  -0.20092  -0.19281  -0.18555  -0.15844
 Alpha  occ. eigenvalues --   -0.13771  -0.11242   0.04890
 Alpha virt. eigenvalues --    0.06415   0.07631   0.08964   0.09060   0.09488
 Alpha virt. eigenvalues --    0.09742   0.10496   0.10853   0.12323   0.13104
 Alpha virt. eigenvalues --    0.13445   0.14002   0.14589   0.15198   0.16512

  Beta  occ. eigenvalues --  -19.04885 -14.33715 -14.24717 -14.23635 -14.18184
  Beta  occ. eigenvalues --  -14.18029 -10.15138 -10.13249 -10.11728 -10.09329
  Beta  occ. eigenvalues --  -10.06316 -10.06075 -10.05422  -1.00839  -0.97346
  Beta  occ. eigenvalues --   -0.87938  -0.83061  -0.76065  -0.69548  -0.65645
  Beta  occ. eigenvalues --   -0.60311  -0.55185  -0.53837  -0.49917  -0.46205
  Beta  occ. eigenvalues --   -0.42387  -0.38654  -0.38238  -0.37508  -0.36818
  Beta  occ. eigenvalues --   -0.32888  -0.32491  -0.32131  -0.31230  -0.29411
  Beta  occ. eigenvalues --   -0.29086  -0.28945  -0.27555  -0.27400  -0.24277
  Beta  occ. eigenvalues --   -0.22982  -0.20032  -0.18624  -0.18530  -0.15327
  Beta  occ. eigenvalues --   -0.13679  -0.10402
  Beta virt. eigenvalues --    0.07135   0.07935   0.09202   0.09308   0.09665
  Beta virt. eigenvalues --    0.09859   0.10290   0.10668   0.11121   0.12422
  Beta virt. eigenvalues --    0.13293   0.13700   0.14012   0.14547   0.16212

 Mulliken charges and spin densities:
               1          2
     1  C    1.404131  -2.010563
     2  C   -0.967603   0.913194
     3  O   -0.112972   0.038298
     4  C    0.262804  -0.105436
     5  N   -0.096375   0.028361
     6  C   -0.280350   0.135694
     7  N   -0.168799   0.014126
     8  C   -0.282658   0.026949
     9  C   -0.071752   0.573391
    10  C   -0.007598  -0.769170
    11  N   -0.551371  -0.116622
    12  N    0.647848   0.107725
    13  N   -0.241517   0.230470
    14  H   -0.289041   0.441185
    15  H   -0.425269   0.565127
    16  H   -0.203707   0.345698
    17  H    0.063476   0.126811
    18  H    0.155100   0.028390
    19  H    0.128542   0.015956
    20  H    0.100589   0.055000
    21  H   -0.077829   0.248222
    22  H    0.014350   0.107192
 Sum of Mulliken charges =  -1.00000   1.00000

 Dipole moment (field-independent basis, Debye):
    X=              1.0310    Y=              2.5716    Z=             -1.0178  Tot=              2.9516
 Quadrupole moment (field-independent basis, Debye-Ang):
   XX=           -158.1763   YY=           -102.3767   ZZ=            -88.9942
   XY=             -6.8829   XZ=              4.0221   YZ=             -0.9185

 Summary of Natural Population Analysis:

                                       Natural Population
                Natural  -----------------------------------------------
    Atom  No    Charge         Core      Valence    Rydberg      Total
 -----------------------------------------------------------------------
      C    1   -0.29393      0.99966     2.28886    0.00541     3.29393
      C    2   -0.01450      0.99958     2.00204    0.01289     3.01450
      O    3   -0.27664      0.99985     3.26704    0.00975     4.27664
      C    4    0.29228      0.99943     1.69126    0.01703     2.70772
      N    5   -0.26957      0.99962     2.76209    0.00786     3.76957
      C    6    0.32474      0.99959     1.65709    0.01858     2.67526
      N    7   -0.27991      0.99967     2.76898    0.01125     3.77991
      C    8    0.04352      0.99955     1.94298    0.01394     2.95648
      C    9   -0.05733      0.99948     2.04863    0.00922     3.05733
      C   10   -0.29251      0.99965     2.28696    0.00590     3.29251
      N   11   -0.21431      0.99965     2.70096    0.01369     3.71431
      N   12    0.15862      0.99971     2.32552    0.01616     3.34138
      N   13    0.00600      0.99981     2.48116    0.01303     3.49400
      H   14    0.10185      0.00000     0.39626    0.00189     0.39815
      H   15    0.10117      0.00000     0.39737    0.00146     0.39883
      H   16    0.09924      0.00000     0.39941    0.00135     0.40076
      H   17    0.09125      0.00000     0.40704    0.00171     0.40875
      H   18    0.08946      0.00000     0.40891    0.00163     0.41054
      H   19    0.08386      0.00000     0.41470    0.00144     0.41614
      H   20    0.10334      0.00000     0.39548    0.00118     0.39666
      H   21    0.10728      0.00000     0.39111    0.00162     0.39272
      H   22    0.09608      0.00000     0.40303    0.00090     0.40392
 =======================================================================
   * Total *   -0.00000     12.99525    33.83688    0.16788    47.00000

 Normal termination of Gaussian 16 at Wed Dec  9 22:42:38 2020.
