 Gaussian 16, Revision A.03,

 -----------------------------------------------------------
 # opt freq B3LYP/6-31G(d) empiricaldispersion=gd3bj scf=xqc
 -----------------------------------------------------------

 -------------------------------
 CID_153901032_JID_4122_neutraal
 -------------------------------
 Symbolic Z-matrix:
 Charge =  0 Multiplicity = 1

 SCF Done:  E(RB3LYP) =  -989.640013523     A.U. after   16 cycles
 SCF Done:  E(RB3LYP) =  -989.654200040     A.U. after   13 cycles
 SCF Done:  E(RB3LYP) =  -989.656409526     A.U. after   13 cycles
 SCF Done:  E(RB3LYP) =  -989.656774894     A.U. after   13 cycles
 SCF Done:  E(RB3LYP) =  -989.657132846     A.U. after   13 cycles
 SCF Done:  E(RB3LYP) =  -989.657495177     A.U. after   12 cycles
 SCF Done:  E(RB3LYP) =  -989.658372266     A.U. after   14 cycles
 SCF Done:  E(RB3LYP) =  -989.658866486     A.U. after   12 cycles
 SCF Done:  E(RB3LYP) =  -989.659556696     A.U. after   13 cycles
 SCF Done:  E(RB3LYP) =  -989.659777356     A.U. after   13 cycles
 SCF Done:  E(RB3LYP) =  -989.660251357     A.U. after   10 cycles
 SCF Done:  E(RB3LYP) =  -989.660205727     A.U. after   13 cycles
 SCF Done:  E(RB3LYP) =  -989.660251920     A.U. after   12 cycles
 SCF Done:  E(RB3LYP) =  -989.660252458     A.U. after   11 cycles
 SCF Done:  E(RB3LYP) =  -989.660250066     A.U. after   10 cycles
 SCF Done:  E(RB3LYP) =  -989.660248968     A.U. after    8 cycles
 Optimization completed.
    -- Stationary point found.
 Normal termination of Gaussian 16 at Thu Dec 10 09:25:31 2020.

 --------------------------------------------------------------------
 #N Geom=AllCheck Guess=TCheck SCRF=Check GenChk RB3LYP/6-31G(d) Freq
 --------------------------------------------------------------------

 Structure from the checkpoint file:  "JID_4122.chk"
 -------------------------------
 CID_153901032_JID_4122_neutraal
 -------------------------------
 Charge =  0 Multiplicity = 1

 SCF Done:  E(RB3LYP) =  -989.660248968     A.U. after    1 cycles

  Exact polarizability: 168.677  -7.392 110.666  -7.202  -7.382 107.516
 Approx polarizability: 230.936  -9.249 174.631 -18.127 -23.752 170.894

                      1                      2                      3
                      A                      A                      A
 Frequencies --     16.1771                46.4415                82.6740
 Red. masses --      4.8551                 3.7645                 3.0760
 Frc consts  --      0.0007                 0.0048                 0.0124
 IR Inten    --      0.4392                 0.8480                 5.8364

                      4                      5                      6
                      A                      A                      A
 Frequencies --    113.0784               147.3984               172.6613
 Red. masses --      3.3990                 2.1769                 4.5138
 Frc consts  --      0.0256                 0.0279                 0.0793
 IR Inten    --      0.1917                 1.2221                 0.5768

                      7                      8                      9
                      A                      A                      A
 Frequencies --    183.6813               230.0548               232.3708
 Red. masses --      1.6318                 4.9529                 2.7098
 Frc consts  --      0.0324                 0.1544                 0.0862
 IR Inten    --      1.2658                 2.7782                 2.0720

                     10                     11                     12
                      A                      A                      A
 Frequencies --    241.5794               314.2641               344.1047
 Red. masses --      3.4740                 3.2584                 2.4118
 Frc consts  --      0.1195                 0.1896                 0.1683
 IR Inten    --      1.3356                 2.0726                 1.9370

                     13                     14                     15
                      A                      A                      A
 Frequencies --    373.6817               415.3479               428.0906
 Red. masses --      2.5627                 3.0432                 3.8576
 Frc consts  --      0.2108                 0.3093                 0.4165
 IR Inten    --      5.6747                 2.4975                 8.3953

                     16                     17                     18
                      A                      A                      A
 Frequencies --    455.8902               477.7329               493.8082
 Red. masses --      7.7765                 2.6444                 2.3168
 Frc consts  --      0.9523                 0.3556                 0.3328
 IR Inten    --      0.7989                 5.3619                 2.7338

                     19                     20                     21
                      A                      A                      A
 Frequencies --    546.5103               605.9282               679.3569
 Red. masses --      4.6448                 5.8617                 2.9935
 Frc consts  --      0.8174                 1.2680                 0.8140
 IR Inten    --     14.5896                 0.7483                 7.4898

                     22                     23                     24
                      A                      A                      A
 Frequencies --    727.0878               749.6830               784.8826
 Red. masses --      7.2424                 7.6392                 2.0303
 Frc consts  --      2.2558                 2.5296                 0.7369
 IR Inten    --     20.8738                11.9648                11.7381

                     25                     26                     27
                      A                      A                      A
 Frequencies --    789.2000               824.8724               867.1721
 Red. masses --      3.0732                 3.6193                 2.1757
 Frc consts  --      1.1278                 1.4509                 0.9640
 IR Inten    --     20.4998                 2.0033                 5.0633

                     28                     29                     30
                      A                      A                      A
 Frequencies --    875.4547               893.3580               917.7232
 Red. masses --      2.1907                 2.1347                 4.0217
 Frc consts  --      0.9892                 1.0038                 1.9956
 IR Inten    --      5.9686                 4.0672                14.6183

                     31                     32                     33
                      A                      A                      A
 Frequencies --    950.5145               970.1426              1036.2977
 Red. masses --      1.3748                 1.7383                 3.0869
 Frc consts  --      0.7318                 0.9639                 1.9532
 IR Inten    --      3.6758                46.6537                 1.6934

                     34                     35                     36
                      A                      A                      A
 Frequencies --   1044.3794              1059.4035              1064.9996
 Red. masses --      2.1890                 1.8416                 2.0047
 Frc consts  --      1.4067                 1.2178                 1.3397
 IR Inten    --     13.1536                 9.2925                 8.1246

                     37                     38                     39
                      A                      A                      A
 Frequencies --   1106.1477              1112.2852              1146.9255
 Red. masses --      7.7359                 1.8666                 1.0453
 Frc consts  --      5.5769                 1.3606                 0.8102
 IR Inten    --     61.0459                 3.0646                 0.2388

                     40                     41                     42
                      A                      A                      A
 Frequencies --   1174.6038              1181.8217              1183.4908
 Red. masses --      2.4715                 1.2624                 1.5227
 Frc consts  --      2.0091                 1.0388                 1.2566
 IR Inten    --     48.1420                 0.9106                 4.9306

                     43                     44                     45
                      A                      A                      A
 Frequencies --   1201.4270              1272.3572              1304.5370
 Red. masses --      1.4555                 1.9263                 1.3150
 Frc consts  --      1.2378                 1.8373                 1.3185
 IR Inten    --      7.1214               137.7415                 8.5099

                     46                     47                     48
                      A                      A                      A
 Frequencies --   1311.6276              1322.2963              1336.0721
 Red. masses --      1.7101                 1.3913                 2.7203
 Frc consts  --      1.7334                 1.4333                 2.8611
 IR Inten    --    112.4880                16.2931               295.5895

                     49                     50                     51
                      A                      A                      A
 Frequencies --   1350.5455              1374.8713              1402.4234
 Red. masses --      1.4448                 1.3487                 1.4395
 Frc consts  --      1.5526                 1.5021                 1.6681
 IR Inten    --      1.2587                 1.2472                 6.1189

                     52                     53                     54
                      A                      A                      A
 Frequencies --   1407.2739              1407.6282              1412.7961
 Red. masses --      1.3599                 1.4430                 1.4673
 Frc consts  --      1.5868                 1.6846                 1.7256
 IR Inten    --      3.8741                 0.4188                 1.6123

                     55                     56                     57
                      A                      A                      A
 Frequencies --   1430.4453              1437.9551              1501.4029
 Red. masses --      1.6999                 1.3220                 1.4031
 Frc consts  --      2.0494                 1.6105                 1.8635
 IR Inten    --     20.9152               115.0855                40.4374

                     58                     59                     60
                      A                      A                      A
 Frequencies --   1503.8712              1510.8873              1513.7882
 Red. masses --      1.0943                 1.0942                 1.0521
 Frc consts  --      1.4582                 1.4717                 1.4205
 IR Inten    --      3.3807                 3.7661                 4.3949

                     61                     62                     63
                      A                      A                      A
 Frequencies --   1520.0921              1522.9976              1524.1485
 Red. masses --      1.0859                 1.0871                 1.0501
 Frc consts  --      1.4784                 1.4856                 1.4372
 IR Inten    --     11.3006                 8.0351                41.4910

                     64                     65                     66
                      A                      A                      A
 Frequencies --   1536.8117              1554.9167              1655.2353
 Red. masses --      1.1014                 4.8958                 8.0054
 Frc consts  --      1.5326                 6.9741                12.9227
 IR Inten    --     12.2240                83.6094               572.8302

                     67                     68                     69
                      A                      A                      A
 Frequencies --   3017.3913              3021.2354              3030.4744
 Red. masses --      1.0690                 1.0749                 1.0696
 Frc consts  --      5.7342                 5.7807                 5.7877
 IR Inten    --     26.7537                14.8120                15.7761

                     70                     71                     72
                      A                      A                      A
 Frequencies --   3044.5947              3055.7079              3059.3374
 Red. masses --      1.0699                 1.0646                 1.0682
 Frc consts  --      5.8431                 5.8566                 5.8907
 IR Inten    --     55.1435                17.4497                49.8209

                     73                     74                     75
                      A                      A                      A
 Frequencies --   3071.3736              3079.4647              3081.2500
 Red. masses --      1.0299                 1.0972                 1.0929
 Frc consts  --      5.7242                 6.1304                 6.1136
 IR Inten    --     52.0168                49.2691                36.5321

                     76                     77                     78
                      A                      A                      A
 Frequencies --   3085.4410              3101.1624              3105.4147
 Red. masses --      1.0997                 1.1025                 1.0888
 Frc consts  --      6.1680                 6.2471                 6.1865
 IR Inten    --     21.8870                27.3408                36.0264

                     79                     80                     81
                      A                      A                      A
 Frequencies --   3119.4309              3147.8654              3171.0340
 Red. masses --      1.0965                 1.1062                 1.1075
 Frc consts  --      6.2864                 6.4580                 6.5616
 IR Inten    --     39.4036                28.4139                25.6784

 - Thermochemistry -
 -------------------
 Temperature   298.150 Kelvin.  Pressure   1.00000 Atm.
 Atom     1 has atomic number  6 and mass  12.00000

 Molecular mass:   213.09358 amu.
 Principal axes and moments of inertia in atomic units:
                           1         2         3
     Eigenvalues --  1357.809394867.373034901.39704
           X            0.99994  -0.01021   0.00355
           Y            0.00967   0.99179   0.12751
           Z           -0.00482  -0.12747   0.99183
 This molecule is an asymmetric top.
 Rotational symmetry number  1.
 Warning -- assumption of classical behavior for rotation
           may cause significant error
 Rotational temperatures (Kelvin)      0.06379     0.01779     0.01767
 Rotational constants (GHZ):           1.32916     0.37078     0.36821
 Zero-point vibrational energy     643404.7 (Joules/Mol)
                                  153.77741 (Kcal/Mol)
 Warning -- explicit consideration of  20 degrees of freedom as
           vibrations may cause significant error
 Vibrational temperatures:     23.28    66.82   118.95   162.69   212.07
          (Kelvin)            248.42   264.28   331.00   334.33   347.58
                              452.16   495.09   537.64   597.59   615.93
                              655.92   687.35   710.48   786.31   871.80
                              977.44  1046.12  1078.63  1129.27  1135.48
                             1186.81  1247.67  1259.58  1285.34  1320.40
                             1367.58  1395.82  1491.00  1502.63  1524.25
                             1532.30  1591.50  1600.33  1650.17  1689.99
                             1700.38  1702.78  1728.59  1830.64  1876.94
                             1887.14  1902.49  1922.31  1943.13  1978.13
                             2017.77  2024.75  2025.26  2032.70  2058.09
                             2068.90  2160.18  2163.74  2173.83  2178.00
                             2187.07  2191.25  2192.91  2211.13  2237.18
                             2381.51  4341.35  4346.88  4360.18  4380.49
                             4396.48  4401.70  4419.02  4430.66  4433.23
                             4439.26  4461.88  4468.00  4488.17  4529.08
                             4562.41

 Zero-point correction=                           0.245060 (Hartree/Particle)
 Thermal correction to Energy=                    0.258530
 Thermal correction to Enthalpy=                  0.259474
 Thermal correction to Gibbs Free Energy=         0.203568
 Sum of electronic and zero-point Energies=           -989.415189
 Sum of electronic and thermal Energies=              -989.401719
 Sum of electronic and thermal Enthalpies=            -989.400775
 Sum of electronic and thermal Free Energies=         -989.456681

                     E (Thermal)             CV                S
                      KCal/Mol        Cal/Mol-Kelvin    Cal/Mol-Kelvin
 Total                  162.230             50.945            117.665
 Electronic               0.000              0.000              0.000
 Translational            0.889              2.981             41.973
 Rotational               0.889              2.981             31.849
 Vibrational            160.452             44.984             43.842
 Vibration     1          0.593              1.986              7.055
 Vibration     2          0.595              1.979              4.963
 Vibration     3          0.600              1.961              3.826
 Vibration     4          0.607              1.939              3.215
 Vibration     5          0.617              1.905              2.706
 Vibration     6          0.626              1.876              2.406
 Vibration     7          0.631              1.862              2.291
 Vibration     8          0.652              1.795              1.879
 Vibration     9          0.653              1.791              1.861
 Vibration    10          0.658              1.777              1.791
 Vibration    11          0.702              1.646              1.340
 Vibration    12          0.723              1.587              1.193
 Vibration    13          0.745              1.526              1.065
 Vibration    14          0.779              1.437              0.908
 Vibration    15          0.790              1.409              0.865
 Vibration    16          0.814              1.348              0.778
 Vibration    17          0.834              1.299              0.716
 Vibration    18          0.849              1.264              0.674
 Vibration    19          0.902              1.147              0.551
 Vibration    20          0.965              1.019              0.440

                           ! Non-Optimized Parameters !
 Normal termination of Gaussian 16 at Thu Dec 10 09:33:20 2020.

 ----------------------------------------------------------------------
 # B3LYP/6-311++G(d,p) empiricaldispersion=gd3bj scf=xqc pop=npa geom=c
 heck
 ----------------------------------------------------------------------

 ---------------------------------------
 CID_153901032_JID_4122_Energie_neutraal
 ---------------------------------------
 Structure from the checkpoint file:  "JID_4122.chk"
 Charge =  0 Multiplicity = 1

 SCF Done:  E(RB3LYP) =  -989.847988047     A.U. after   16 cycles
 Normal termination of Gaussian 16 at Thu Dec 10 09:36:49 2020.

 ----------------------------------------------------------------------
 # B3LYP/6-311++G(d,p) empiricaldispersion=gd3bj scf=xqc pop=npa geom=c
 heck
 ----------------------------------------------------------------------

 -------------------------------------
 CID_153901032_JID_4122_Energie_kation
 -------------------------------------
 Structure from the checkpoint file:  "JID_4122.chk"
 Charge =  1 Multiplicity = 2

 SCF Done:  E(UB3LYP) =  -989.574125587     A.U. after   22 cycles
 Normal termination of Gaussian 16 at Thu Dec 10 09:43:07 2020.
 Gaussian 16:  ES64L-G16RevA.03 25-Dec-2016

 ----------------------------------------------------------------------
 # B3LYP/6-311++G(d,p) empiricaldispersion=gd3bj scf=xqc pop=npa geom=c
 heck
 ----------------------------------------------------------------------

 ------------------------------------
 CID_153901032_JID_4122_Energie_anion
 ------------------------------------
 Structure from the checkpoint file:  "JID_4122.chk"
 Charge = -1 Multiplicity = 2

                         Standard orientation:
 ---------------------------------------------------------------------
 Center     Atomic      Atomic             Coordinates (Angstroms)
 Number     Number       Type             X           Y           Z
 ---------------------------------------------------------------------
      1          6           0       -4.353102    0.831730    0.406589
      2          8           0       -3.429870   -0.144679    0.901648
      3          6           0       -2.284901   -0.354497    0.231962
      4          7           0       -1.423154   -1.114217    0.835501
      5         16           0       -0.108965   -1.551329   -0.173584
      6          7           0        0.190535   -0.026795   -1.025254
      7          6           0       -0.951451    0.603904   -1.382766
      8          7           0       -2.159163    0.356411   -0.960673
      9          6           0        1.448064    0.758761   -0.978095
     10          6           0        1.544026    1.646753    0.277745
     11          6           0        1.964786    0.874490    1.533116
     12          6           0        3.300433    0.156600    1.296958
     13          6           0        3.217166   -0.802870    0.102159
     14          6           0        2.710525   -0.099240   -1.169035
     15          1           0       -5.183172    0.811508    1.114685
     16          1           0       -4.701070    0.576225   -0.596683
     17          1           0       -3.901200    1.827429    0.383549
     18          1           0       -0.816381    1.432953   -2.084499
     19          1           0        1.358906    1.417322   -1.853049
     20          1           0        2.292445    2.425353    0.070857
     21          1           0        0.586685    2.159092    0.430715
     22          1           0        1.188074    0.149027    1.801120
     23          1           0        2.051160    1.571265    2.375400
     24          1           0        3.601526   -0.394107    2.195739
     25          1           0        4.082566    0.908280    1.111201
     26          1           0        2.554199   -1.633430    0.359906
     27          1           0        4.202688   -1.236870   -0.106173
     28          1           0        2.540593   -0.821460   -1.976224
     29          1           0        3.494580    0.584526   -1.521188
 ---------------------------------------------------------------------

 SCF Done:  E(UB3LYP) =  -989.850801261     A.U. after   32 cycles

 The electronic state is 2-A.
 Alpha  occ. eigenvalues --  -88.73916 -19.02257 -14.21239 -14.15426 -14.15227
 Alpha  occ. eigenvalues --  -10.13523 -10.10518 -10.09644 -10.09071 -10.06082
 Alpha  occ. eigenvalues --  -10.06006 -10.05642 -10.05406 -10.05281  -7.82095
 Alpha  occ. eigenvalues --   -5.78695  -5.78188  -5.77281  -0.95203  -0.84785
 Alpha  occ. eigenvalues --   -0.77072  -0.73739  -0.71067  -0.63595  -0.63496
 Alpha  occ. eigenvalues --   -0.60342  -0.55094  -0.51932  -0.50465  -0.48918
 Alpha  occ. eigenvalues --   -0.44426  -0.41060  -0.40501  -0.37508  -0.35944
 Alpha  occ. eigenvalues --   -0.35255  -0.34215  -0.33716  -0.31841  -0.30751
 Alpha  occ. eigenvalues --   -0.28964  -0.27665  -0.27463  -0.27278  -0.27107
 Alpha  occ. eigenvalues --   -0.24299  -0.22868  -0.22462  -0.22176  -0.21601
 Alpha  occ. eigenvalues --   -0.19926  -0.19734  -0.18120  -0.15145  -0.13696
 Alpha  occ. eigenvalues --   -0.11335  -0.05287   0.04541
 Alpha virt. eigenvalues --    0.06876   0.08358   0.08533   0.08865   0.09843
 Alpha virt. eigenvalues --    0.10975   0.11200   0.11678   0.12156   0.12421
 Alpha virt. eigenvalues --    0.12980   0.13127   0.13876   0.14610   0.15226

  Beta  occ. eigenvalues --  -88.73874 -19.02195 -14.21102 -14.15319 -14.15251
  Beta  occ. eigenvalues --  -10.13301 -10.10517 -10.09643 -10.08595 -10.06077
  Beta  occ. eigenvalues --  -10.05997 -10.05641 -10.05392 -10.05279  -7.82056
  Beta  occ. eigenvalues --   -5.78554  -5.78169  -5.77258  -0.95013  -0.84349
  Beta  occ. eigenvalues --   -0.76820  -0.73462  -0.70987  -0.63576  -0.63396
  Beta  occ. eigenvalues --   -0.60242  -0.54789  -0.51513  -0.50405  -0.48693
  Beta  occ. eigenvalues --   -0.44319  -0.40839  -0.40215  -0.37450  -0.35755
  Beta  occ. eigenvalues --   -0.34972  -0.34157  -0.33619  -0.31732  -0.30458
  Beta  occ. eigenvalues --   -0.28613  -0.27474  -0.27376  -0.27241  -0.26762
  Beta  occ. eigenvalues --   -0.24128  -0.22542  -0.22139  -0.22052  -0.21322
  Beta  occ. eigenvalues --   -0.19809  -0.19651  -0.17825  -0.14605  -0.13286
  Beta  occ. eigenvalues --   -0.11100  -0.05024
  Beta virt. eigenvalues --    0.07054   0.08303   0.08831   0.08902   0.09966
  Beta virt. eigenvalues --    0.10343   0.11070   0.11314   0.11820   0.12164
  Beta virt. eigenvalues --    0.12674   0.12995   0.13252   0.13921   0.14939

 Mulliken charges and spin densities:
               1          2
     1  C   -0.208243  -0.018844
     2  O   -0.102593   0.011520
     3  C   -0.196066   0.112313
     4  N   -0.322187   0.047579
     5  S    0.067855   0.041032
     6  N   -0.052488   0.076188
     7  C    0.122841   0.084441
     8  N   -0.114623  -0.006189
     9  C   -0.043874   0.181311
    10  C    0.050966  -0.605767
    11  C   -0.242970   0.071901
    12  C   -0.331560  -0.257410
    13  C   -0.002462   0.087759
    14  C   -0.050509  -0.649502
    15  H    0.110924   0.003688
    16  H    0.164361  -0.001581
    17  H    0.123554   0.027068
    18  H   -0.182952   0.271648
    19  H   -0.462680   0.690741
    20  H   -0.204371   0.344871
    21  H    0.200968  -0.014140
    22  H    0.178349   0.022760
    23  H    0.114209   0.029124
    24  H    0.112222   0.024313
    25  H    0.003919   0.109735
    26  H    0.105454   0.008815
    27  H    0.111301   0.045958
    28  H    0.175823   0.001107
    29  H   -0.125170   0.259562
 Sum of Mulliken charges =  -1.00000   1.00000

 Dipole moment (field-independent basis, Debye):
    X=              0.9701    Y=              0.1040    Z=              2.1213  Tot=              2.3349
 Quadrupole moment (field-independent basis, Debye-Ang):
   XX=           -127.5962   YY=           -117.4940   ZZ=           -120.3459
   XY=            -12.6341   XZ=              4.2929   YZ=              9.0469

 Summary of Natural Population Analysis:

                                       Natural Population
                Natural  -----------------------------------------------
    Atom  No    Charge         Core      Valence    Rydberg      Total
 -----------------------------------------------------------------------
      C    1   -0.09854      0.99960     2.09093    0.00801     3.09854
      O    2   -0.26977      0.99984     3.26022    0.00971     4.26977
      C    3    0.39229      0.99953     1.58743    0.02076     2.60771
      N    4   -0.35594      0.99964     2.84307    0.01322     3.85594
      S    5    0.26507      4.99961     2.70867    0.02666     7.73493
      N    6   -0.29727      0.99963     2.78257    0.01507     3.79727
      C    7    0.26425      0.99961     1.71688    0.01926     2.73575
      N    8   -0.34062      0.99966     2.83084    0.01011     3.84062
      C    9   -0.00146      0.99955     1.98535    0.01655     3.00146
      C   10   -0.19297      0.99960     2.18395    0.00941     3.19297
      C   11   -0.19786      0.99963     2.18954    0.00870     3.19786
      C   12   -0.18892      0.99963     2.18135    0.00793     3.18892
      C   13   -0.19620      0.99962     2.18861    0.00796     3.19620
      C   14   -0.19445      0.99960     2.18509    0.00975     3.19445
      H   15    0.08019      0.00000     0.41890    0.00090     0.41981
      H   16    0.08911      0.00000     0.40961    0.00128     0.41089
      H   17    0.08618      0.00000     0.41249    0.00133     0.41382
      H   18    0.07353      0.00000     0.42426    0.00221     0.42647
      H   19    0.10486      0.00000     0.39076    0.00438     0.39514
      H   20    0.09387      0.00000     0.40464    0.00149     0.40613
      H   21    0.10307      0.00000     0.39571    0.00123     0.39693
      H   22    0.10885      0.00000     0.38970    0.00145     0.39115
      H   23    0.09314      0.00000     0.40598    0.00088     0.40686
      H   24    0.09449      0.00000     0.40466    0.00084     0.40551
      H   25    0.08885      0.00000     0.41004    0.00111     0.41115
      H   26    0.10456      0.00000     0.39357    0.00187     0.39544
      H   27    0.09175      0.00000     0.40738    0.00087     0.40825
      H   28    0.10269      0.00000     0.39617    0.00114     0.39731
      H   29    0.09724      0.00000     0.40171    0.00105     0.40276
 =======================================================================
   * Total *    0.00000     17.99476    38.80010    0.20513    57.00000

 Normal termination of Gaussian 16 at Thu Dec 10 09:52:13 2020.
