 Gaussian 16, Revision A.03,

 -----------------------------------------------------------
 # opt freq B3LYP/6-31G(d) empiricaldispersion=gd3bj scf=xqc
 -----------------------------------------------------------

 ------------------------------
 CID_70188766_JID_6303_neutraal
 ------------------------------
 Symbolic Z-matrix:
 Charge =  0 Multiplicity = 1

 SCF Done:  E(RB3LYP) =  -661.300507277     A.U. after   15 cycles
 SCF Done:  E(RB3LYP) =  -661.305601619     A.U. after   13 cycles
 SCF Done:  E(RB3LYP) =  -661.306517430     A.U. after   13 cycles
 SCF Done:  E(RB3LYP) =  -661.306649655     A.U. after   13 cycles
 SCF Done:  E(RB3LYP) =  -661.306763606     A.U. after   12 cycles
 SCF Done:  E(RB3LYP) =  -661.307046465     A.U. after   11 cycles
 SCF Done:  E(RB3LYP) =  -661.307294512     A.U. after   13 cycles
 SCF Done:  E(RB3LYP) =  -661.307407103     A.U. after   13 cycles
 SCF Done:  E(RB3LYP) =  -661.307515197     A.U. after   12 cycles
 SCF Done:  E(RB3LYP) =  -661.307587840     A.U. after   12 cycles
 SCF Done:  E(RB3LYP) =  -661.307638379     A.U. after   11 cycles
 SCF Done:  E(RB3LYP) =  -661.307638802     A.U. after    9 cycles
 SCF Done:  E(RB3LYP) =  -661.307638850     A.U. after    7 cycles
 SCF Done:  E(RB3LYP) =  -661.307638892     A.U. after    7 cycles
 SCF Done:  E(RB3LYP) =  -661.307638903     A.U. after    6 cycles
 Optimization completed.
    -- Stationary point found.
 Normal termination of Gaussian 16 at Thu Dec 10 22:21:53 2020.

 --------------------------------------------------------------------
 #N Geom=AllCheck Guess=TCheck SCRF=Check GenChk RB3LYP/6-31G(d) Freq
 --------------------------------------------------------------------

 Structure from the checkpoint file:  "JID_6303.chk"
 ------------------------------
 CID_70188766_JID_6303_neutraal
 ------------------------------
 Charge =  0 Multiplicity = 1

 SCF Done:  E(RB3LYP) =  -661.307638903     A.U. after    1 cycles

  Exact polarizability: 197.573  -6.053 146.587  -8.222   3.240 123.602
 Approx polarizability: 262.406 -21.333 215.860 -20.018  10.045 191.432

                      1                      2                      3
                      A                      A                      A
 Frequencies --     27.3143                35.2689                55.9724
 Red. masses --      3.3309                 3.6020                 3.7509
 Frc consts  --      0.0015                 0.0026                 0.0069
 IR Inten    --      1.3395                 0.6396                 0.1985

                      4                      5                      6
                      A                      A                      A
 Frequencies --     73.5316                81.4956               112.6028
 Red. masses --      3.7248                 3.0310                 1.1425
 Frc consts  --      0.0119                 0.0119                 0.0085
 IR Inten    --      1.5022                 1.3601                 0.1621

                      7                      8                      9
                      A                      A                      A
 Frequencies --    159.6899               165.4094               184.0192
 Red. masses --      2.5789                 1.0504                 3.3419
 Frc consts  --      0.0387                 0.0169                 0.0667
 IR Inten    --      0.4016                 0.2048                 1.5838

                     10                     11                     12
                      A                      A                      A
 Frequencies --    229.1894               241.0626               252.4294
 Red. masses --      1.4281                 1.8835                 1.4070
 Frc consts  --      0.0442                 0.0645                 0.0528
 IR Inten    --      0.6046                 0.5377                 0.5676

                     13                     14                     15
                      A                      A                      A
 Frequencies --    268.8698               294.1297               306.5104
 Red. masses --      2.4061                 1.5786                 1.8255
 Frc consts  --      0.1025                 0.0805                 0.1010
 IR Inten    --      0.7357                 0.2264                 0.4301

                     16                     17                     18
                      A                      A                      A
 Frequencies --    322.5507               339.2623               360.7839
 Red. masses --      2.3932                 2.5741                 1.8546
 Frc consts  --      0.1467                 0.1746                 0.1422
 IR Inten    --      0.7158                 1.0698                 0.2924

                     19                     20                     21
                      A                      A                      A
 Frequencies --    373.8535               402.7827               418.9952
 Red. masses --      2.1708                 2.1594                 2.9148
 Frc consts  --      0.1788                 0.2064                 0.3015
 IR Inten    --      0.4000                 0.1383                 2.4782

                     22                     23                     24
                      A                      A                      A
 Frequencies --    422.5924               456.5534               477.1673
 Red. masses --      2.5516                 2.2756                 2.3709
 Frc consts  --      0.2685                 0.2795                 0.3181
 IR Inten    --      0.5812                 0.0625                 1.2020

                     25                     26                     27
                      A                      A                      A
 Frequencies --    495.7197               537.2313               591.8238
 Red. masses --      2.4125                 3.8877                 3.5759
 Frc consts  --      0.3493                 0.6611                 0.7379
 IR Inten    --      0.1947                 4.1035                 5.7749

                     28                     29                     30
                      A                      A                      A
 Frequencies --    597.0096               609.6310               641.9645
 Red. masses --      3.0263                 2.3934                 3.0349
 Frc consts  --      0.6355                 0.5241                 0.7369
 IR Inten    --      4.3607                 6.3463                 3.2198

                     31                     32                     33
                      A                      A                      A
 Frequencies --    683.8056               735.5869               801.7719
 Red. masses --      3.0938                 3.1290                 2.5045
 Frc consts  --      0.8523                 0.9975                 0.9486
 IR Inten    --      1.0536                 7.0961                 2.4818

                     34                     35                     36
                      A                      A                      A
 Frequencies --    837.1323               840.2593               862.5393
 Red. masses --      2.2454                 2.2297                 1.6303
 Frc consts  --      0.9271                 0.9275                 0.7146
 IR Inten    --      1.5012                 1.4447                 8.2758

                     37                     38                     39
                      A                      A                      A
 Frequencies --    907.9494               930.7445               932.0312
 Red. masses --      1.6674                 1.8175                 2.3324
 Frc consts  --      0.8098                 0.9277                 1.1938
 IR Inten    --      8.2141                 0.9311                 6.3154

                     40                     41                     42
                      A                      A                      A
 Frequencies --    948.8340               957.8897               967.0881
 Red. masses --      1.7917                 1.7889                 1.6472
 Frc consts  --      0.9504                 0.9671                 0.9077
 IR Inten    --      1.3305                 2.1538                 0.7932

                     43                     44                     45
                      A                      A                      A
 Frequencies --    976.2778               987.0931              1005.4589
 Red. masses --      1.6101                 1.4995                 1.7113
 Frc consts  --      0.9042                 0.8608                 1.0193
 IR Inten    --      1.3528                 3.2441                22.5674

                     46                     47                     48
                      A                      A                      A
 Frequencies --   1021.5524              1046.2530              1050.4006
 Red. masses --      1.5234                 1.5605                 1.5779
 Frc consts  --      0.9367                 1.0064                 1.0257
 IR Inten    --      0.2721                 2.1320                 0.9567

                     49                     50                     51
                      A                      A                      A
 Frequencies --   1055.6849              1073.7521              1082.4063
 Red. masses --      1.6577                 1.3327                 1.6266
 Frc consts  --      1.0885                 0.9053                 1.1229
 IR Inten    --      1.9083                 2.5956                 0.7590

                     52                     53                     54
                      A                      A                      A
 Frequencies --   1101.2777              1112.2816              1122.1025
 Red. masses --      1.7218                 2.0598                 1.8386
 Frc consts  --      1.2303                 1.5015                 1.3640
 IR Inten    --      4.0676                 3.1847                34.6101

                     55                     56                     57
                      A                      A                      A
 Frequencies --   1132.7101              1155.8894              1175.5482
 Red. masses --      1.6979                 2.2032                 1.9845
 Frc consts  --      1.2835                 1.7344                 1.6158
 IR Inten    --      3.7531                 3.5818                11.7565

                     58                     59                     60
                      A                      A                      A
 Frequencies --   1194.0647              1223.5090              1233.9493
 Red. masses --      2.4209                 1.3887                 2.1745
 Frc consts  --      2.0337                 1.2249                 1.9507
 IR Inten    --      4.8798                15.0841                 6.5315

                     61                     62                     63
                      A                      A                      A
 Frequencies --   1262.6099              1274.7424              1290.9590
 Red. masses --      1.5732                 2.1318                 1.7934
 Frc consts  --      1.4776                 2.0410                 1.7610
 IR Inten    --     26.3607                13.6093                13.5865

                     64                     65                     66
                      A                      A                      A
 Frequencies --   1311.8210              1324.8620              1339.2822
 Red. masses --      2.3701                 1.7693                 1.4742
 Frc consts  --      2.4031                 1.8297                 1.5579
 IR Inten    --     57.3263                27.0661                 2.8436

                     67                     68                     69
                      A                      A                      A
 Frequencies --   1359.5810              1389.9579              1397.2206
 Red. masses --      1.6048                 1.3533                 1.2945
 Frc consts  --      1.7478                 1.5405                 1.4889
 IR Inten    --      4.8794                 6.1824                10.5658

                     70                     71                     72
                      A                      A                      A
 Frequencies --   1406.0687              1419.6248              1430.4763
 Red. masses --      1.9469                 1.3791                 1.3008
 Frc consts  --      2.2678                 1.6376                 1.5682
 IR Inten    --      0.8556                40.2678                 3.4669

                     73                     74                     75
                      A                      A                      A
 Frequencies --   1444.4393              1450.2583              1454.8239
 Red. masses --      1.2772                 1.4189                 1.2381
 Frc consts  --      1.5700                 1.7583                 1.5440
 IR Inten    --      6.5026                14.7154                 1.4207

                     76                     77                     78
                      A                      A                      A
 Frequencies --   1503.3861              1505.6475              1509.3042
 Red. masses --      1.0550                 1.0544                 1.0680
 Frc consts  --      1.4048                 1.4084                 1.4335
 IR Inten    --      9.4710                 5.4294                 3.1910

                     79                     80                     81
                      A                      A                      A
 Frequencies --   1510.7491              1510.8540              1517.8519
 Red. masses --      1.0694                 1.0819                 1.1128
 Frc consts  --      1.4381                 1.4551                 1.5105
 IR Inten    --      5.2054                 2.4324                 0.8974

                     82                     83                     84
                      A                      A                      A
 Frequencies --   1520.8378              1524.9544              1533.7929
 Red. masses --      1.0668                 1.0541                 1.0644
 Frc consts  --      1.4538                 1.4443                 1.4753
 IR Inten    --      1.5275                 4.6391                 7.8170

                     85                     86                     87
                      A                      A                      A
 Frequencies --   1535.7423              1540.1067              1547.5778
 Red. masses --      1.0682                 1.0856                 1.0849
 Frc consts  --      1.4843                 1.5171                 1.5308
 IR Inten    --      4.8377                 4.7991                 5.3012

                     88                     89                     90
                      A                      A                      A
 Frequencies --   1556.6272              1717.5906              1765.4374
 Red. masses --      1.0592                 6.4077                10.5938
 Frc consts  --      1.5122                11.1376                19.4538
 IR Inten    --      6.6746                32.8359               203.1450

                     91                     92                     93
                      A                      A                      A
 Frequencies --   3040.6616              3043.1153              3047.9064
 Red. masses --      1.0360                 1.0764                 1.0375
 Frc consts  --      5.6434                 5.8730                 5.6788
 IR Inten    --     26.6673                 6.4693                15.8462

                     94                     95                     96
                      A                      A                      A
 Frequencies --   3054.0746              3056.1463              3057.9820
 Red. masses --      1.0479                 1.0583                 1.0381
 Frc consts  --      5.7588                 5.8240                 5.7194
 IR Inten    --     33.2790                20.5827                 2.4290

                     97                     98                     99
                      A                      A                      A
 Frequencies --   3062.2139              3064.5031              3099.6966
 Red. masses --      1.0710                 1.0384                 1.1014
 Frc consts  --      5.9168                 5.7456                 6.2351
 IR Inten    --     56.3481                11.7524                13.9539

                    100                    101                    102
                      A                      A                      A
 Frequencies --   3106.7206              3107.1030              3109.9720
 Red. masses --      1.0986                 1.0999                 1.1006
 Frc consts  --      6.2473                 6.2562                 6.2719
 IR Inten    --      6.8121                29.5994                35.9322

                    103                    104                    105
                      A                      A                      A
 Frequencies --   3111.4813              3114.8009              3115.7770
 Red. masses --      1.0987                 1.1009                 1.0991
 Frc consts  --      6.2672                 6.2929                 6.2867
 IR Inten    --      1.0546                74.7529                 9.5783

                    106                    107                    108
                      A                      A                      A
 Frequencies --   3119.1094              3126.6096              3142.9879
 Red. masses --      1.1003                 1.0990                 1.0980
 Frc consts  --      6.3071                 6.3300                 6.3907
 IR Inten    --     11.3608                29.8181                31.4533

                    109                    110                    111
                      A                      A                      A
 Frequencies --   3143.4205              3154.9124              3163.4156
 Red. masses --      1.0582                 1.1008                 1.0907
 Frc consts  --      6.1608                 6.4556                 6.4310
 IR Inten    --     33.3945                18.5426                22.2331

                    112                    113                    114
                      A                      A                      A
 Frequencies --   3169.0162              3185.4001              3223.3168
 Red. masses --      1.1015                 1.0878                 1.1144
 Frc consts  --      6.5174                 6.5034                 6.8216
 IR Inten    --     14.6679                13.6509                15.9356

 - Thermochemistry -
 -------------------
 Temperature   298.150 Kelvin.  Pressure   1.00000 Atm.
 Atom     1 has atomic number  6 and mass  12.00000

 Molecular mass:   220.18272 amu.
 Principal axes and moments of inertia in atomic units:
                           1         2         3
     Eigenvalues --  1686.981857102.645177686.40736
           X            0.99996   0.00889  -0.00008
           Y           -0.00889   0.99987   0.01370
           Z            0.00020  -0.01370   0.99991
 This molecule is an asymmetric top.
 Rotational symmetry number  1.
 Warning -- assumption of classical behavior for rotation
           may cause significant error
 Rotational temperatures (Kelvin)      0.05134     0.01219     0.01127
 Rotational constants (GHZ):           1.06980     0.25409     0.23480
 Zero-point vibrational energy     946059.5 (Joules/Mol)
                                  226.11364 (Kcal/Mol)
 Warning -- explicit consideration of  29 degrees of freedom as
           vibrations may cause significant error
 Vibrational temperatures:     39.30    50.74    80.53   105.80   117.25
          (Kelvin)            162.01   229.76   237.99   264.76   329.75
                              346.84   363.19   386.84   423.19   441.00
                              464.08   488.12   519.09   537.89   579.51
                              602.84   608.02   656.88   686.54   713.23
                              772.96   851.50   858.96   877.12   923.64
                              983.84  1058.35  1153.57  1204.45  1208.95
                             1241.00  1306.34  1339.13  1340.98  1365.16
                             1378.19  1391.42  1404.65  1420.21  1446.63
                             1469.79  1505.32  1511.29  1518.90  1544.89
                             1557.34  1584.49  1600.33  1614.46  1629.72
                             1663.07  1691.35  1717.99  1760.36  1775.38
                             1816.61  1834.07  1857.40  1887.42  1906.18
                             1926.93  1956.13  1999.84  2010.29  2023.02
                             2042.52  2058.14  2078.23  2086.60  2093.17
                             2163.04  2166.29  2171.55  2173.63  2173.78
                             2183.85  2188.15  2194.07  2206.79  2209.59
                             2215.87  2226.62  2239.64  2471.23  2540.07
                             4374.83  4378.36  4385.26  4394.13  4397.11
                             4399.75  4405.84  4409.14  4459.77  4469.88
                             4470.43  4474.56  4476.73  4481.50  4482.91
                             4487.70  4498.49  4522.06  4522.68  4539.22
                             4551.45  4559.51  4583.08  4637.63

 Zero-point correction=                           0.360335 (Hartree/Particle)
 Thermal correction to Energy=                    0.377955
 Thermal correction to Enthalpy=                  0.378899
 Thermal correction to Gibbs Free Energy=         0.314783
 Sum of electronic and zero-point Energies=           -660.947304
 Sum of electronic and thermal Energies=              -660.929684
 Sum of electronic and thermal Enthalpies=            -660.928740
 Sum of electronic and thermal Free Energies=         -660.992856

                     E (Thermal)             CV                S
                      KCal/Mol        Cal/Mol-Kelvin    Cal/Mol-Kelvin
 Total                  237.170             68.193            134.944
 Electronic               0.000              0.000              0.000
 Translational            0.889              2.981             42.071
 Rotational               0.889              2.981             32.887
 Vibrational            235.393             62.231             59.986
 Vibration     1          0.593              1.984              6.016
 Vibration     2          0.594              1.982              5.509
 Vibration     3          0.596              1.975              4.594
 Vibration     4          0.599              1.966              4.057
 Vibration     5          0.600              1.962              3.855
 Vibration     6          0.607              1.939              3.224
 Vibration     7          0.622              1.892              2.553
 Vibration     8          0.624              1.885              2.487
 Vibration     9          0.631              1.862              2.287
 Vibration    10          0.652              1.796              1.885
 Vibration    11          0.658              1.777              1.795
 Vibration    12          0.664              1.759              1.714
 Vibration    13          0.673              1.730              1.603
 Vibration    14          0.689              1.685              1.450
 Vibration    15          0.697              1.661              1.381
 Vibration    16          0.708              1.630              1.297
 Vibration    17          0.719              1.597              1.216
 Vibration    18          0.735              1.553              1.119
 Vibration    19          0.745              1.526              1.064
 Vibration    20          0.768              1.464              0.952
 Vibration    21          0.782              1.429              0.895
 Vibration    22          0.785              1.421              0.883
 Vibration    23          0.815              1.346              0.776
 Vibration    24          0.834              1.301              0.718
 Vibration    25          0.851              1.260              0.669
 Vibration    26          0.892              1.168              0.571
 Vibration    27          0.949              1.049              0.464
 Vibration    28          0.955              1.038              0.455
 Vibration    29          0.969              1.011              0.433

 Optimization completed.
    -- Stationary point found.
 Normal termination of Gaussian 16 at Thu Dec 10 22:37:34 2020.

 ----------------------------------------------------------------------
 # B3LYP/6-311++G(d,p) empiricaldispersion=gd3bj scf=xqc pop=npa geom=c
 heck
 ----------------------------------------------------------------------

 --------------------------------------
 CID_70188766_JID_6303_Energie_neutraal
 --------------------------------------
 Structure from the checkpoint file:  "JID_6303.chk"
 Charge =  0 Multiplicity = 1

 SCF Done:  E(RB3LYP) =  -661.488199729     A.U. after   14 cycles
 Normal termination of Gaussian 16 at Thu Dec 10 22:45:13 2020.

 ----------------------------------------------------------------------
 # B3LYP/6-311++G(d,p) empiricaldispersion=gd3bj scf=xqc pop=npa geom=c
 heck
 ----------------------------------------------------------------------

 ------------------------------------
 CID_70188766_JID_6303_Energie_kation
 ------------------------------------
 Structure from the checkpoint file:  "JID_6303.chk"
 Charge =  1 Multiplicity = 2

 SCF Done:  E(UB3LYP) =  -661.177070601     A.U. after   27 cycles
 Normal termination of Gaussian 16 at Thu Dec 10 23:06:37 2020.
 Gaussian 16:  ES64L-G16RevA.03 25-Dec-2016

 ----------------------------------------------------------------------
 # B3LYP/6-311++G(d,p) empiricaldispersion=gd3bj scf=xqc pop=npa geom=c
 heck
 ----------------------------------------------------------------------

 -----------------------------------
 CID_70188766_JID_6303_Energie_anion
 -----------------------------------
 Structure from the checkpoint file:  "JID_6303.chk"
 Charge = -1 Multiplicity = 2

                         Standard orientation:
 ---------------------------------------------------------------------
 Center     Atomic      Atomic             Coordinates (Angstroms)
 Number     Number       Type             X           Y           Z
 ---------------------------------------------------------------------
      1          6           0       -2.689399    1.856067    0.102456
      2          6           0       -2.708219    0.380414   -0.198976
      3          6           0       -1.645805   -0.324474   -0.633049
      4          6           0       -0.262236    0.212858   -0.872667
      5          6           0        0.587304    0.266140    0.420852
      6          6           0        0.800158   -1.158463    0.989634
      7          6           0        2.034198   -1.684479    0.257490
      8          6           0        3.378700   -1.369838    0.860551
      9          6           0        2.825283   -0.488291   -0.239574
     10          6           0        2.041883    0.800639    0.179246
     11          6           0        2.117778    1.904771   -0.888039
     12          6           0        2.570089    1.418229    1.490399
     13          6           0        3.532222   -0.540276   -1.578456
     14          6           0       -4.025359   -0.284176    0.031192
     15          8           0       -4.978224    0.374014    0.427205
     16          6           0       -4.183270   -1.777218   -0.222074
     17          1           0       -1.725368    2.313701   -0.128180
     18          1           0       -2.911087    2.031635    1.161083
     19          1           0       -3.472754    2.372906   -0.461377
     20          1           0       -1.775814   -1.389746   -0.805550
     21          1           0        0.250356   -0.419232   -1.608567
     22          1           0       -0.326215    1.214668   -1.305396
     23          1           0        0.058439    0.907593    1.137501
     24          1           0        0.966440   -1.124012    2.072935
     25          1           0       -0.074246   -1.796832    0.834101
     26          1           0        1.939199   -2.574239   -0.360479
     27          1           0        4.215307   -2.010970    0.592451
     28          1           0        3.414841   -1.015137    1.885720
     29          1           0        1.467180    2.743258   -0.613336
     30          1           0        3.138853    2.294916   -0.963079
     31          1           0        1.821128    1.564848   -1.882708
     32          1           0        2.392323    0.779489    2.360320
     33          1           0        3.647859    1.605209    1.427353
     34          1           0        2.070558    2.374447    1.684310
     35          1           0        3.980236   -1.528497   -1.729565
     36          1           0        2.849119   -0.359865   -2.416173
     37          1           0        4.340423    0.198564   -1.642520
     38          1           0       -3.963339   -2.030198   -1.265273
     39          1           0       -3.504030   -2.361309    0.409055
     40          1           0       -5.213579   -2.054745    0.005815
 ---------------------------------------------------------------------

 SCF Done:  E(UB3LYP) =  -661.487366998     A.U. after   33 cycles
 SCF Done:  E(UB3LYP) =  -661.487366998     a.u. after    1 cycles

 The electronic state is 2-A.
 Alpha  occ. eigenvalues --  -18.94249 -10.08847 -10.08473 -10.08224 -10.07122
 Alpha  occ. eigenvalues --  -10.06916 -10.06608 -10.06381 -10.06064 -10.06048
 Alpha  occ. eigenvalues --  -10.05943 -10.05154 -10.04196 -10.03838 -10.03298
 Alpha  occ. eigenvalues --  -10.02831  -0.88161  -0.78866  -0.70598  -0.68034
 Alpha  occ. eigenvalues --   -0.65330  -0.61989  -0.60479  -0.58829  -0.58359
 Alpha  occ. eigenvalues --   -0.54576  -0.52219  -0.49443  -0.46162  -0.43575
 Alpha  occ. eigenvalues --   -0.41425  -0.39015  -0.37699  -0.36636  -0.35058
 Alpha  occ. eigenvalues --   -0.34581  -0.33081  -0.31946  -0.31441  -0.31258
 Alpha  occ. eigenvalues --   -0.30609  -0.30364  -0.29810  -0.28565  -0.28402
 Alpha  occ. eigenvalues --   -0.27831  -0.27714  -0.26539  -0.26064  -0.25739
 Alpha  occ. eigenvalues --   -0.23643  -0.23136  -0.23047  -0.22184  -0.21792
 Alpha  occ. eigenvalues --   -0.20855  -0.19872  -0.18125  -0.16249  -0.12433
 Alpha  occ. eigenvalues --   -0.10193   0.04392
 Alpha virt. eigenvalues --    0.05991   0.07133   0.07652   0.08099   0.09094
 Alpha virt. eigenvalues --    0.09587   0.09845   0.10040   0.10501   0.11120
 Alpha virt. eigenvalues --    0.12141   0.12363   0.12577   0.12653   0.13284

  Beta  occ. eigenvalues --  -18.93861 -10.08582 -10.08469 -10.08224 -10.07116
  Beta  occ. eigenvalues --  -10.06903 -10.06585 -10.06339 -10.06049 -10.06030
  Beta  occ. eigenvalues --  -10.05927 -10.05183 -10.04219 -10.03842 -10.03262
  Beta  occ. eigenvalues --  -10.02490  -0.87446  -0.78849  -0.70488  -0.67785
  Beta  occ. eigenvalues --   -0.65205  -0.61894  -0.60351  -0.58702  -0.58302
  Beta  occ. eigenvalues --   -0.54412  -0.52143  -0.49371  -0.45917  -0.43121
  Beta  occ. eigenvalues --   -0.41380  -0.38946  -0.37537  -0.36521  -0.34848
  Beta  occ. eigenvalues --   -0.34498  -0.33020  -0.31857  -0.31356  -0.30762
  Beta  occ. eigenvalues --   -0.30560  -0.30292  -0.29715  -0.28501  -0.28334
  Beta  occ. eigenvalues --   -0.27692  -0.27655  -0.26478  -0.25946  -0.25650
  Beta  occ. eigenvalues --   -0.23490  -0.23069  -0.22929  -0.22048  -0.20828
  Beta  occ. eigenvalues --   -0.20156  -0.19746  -0.18103  -0.16176  -0.10978
  Beta  occ. eigenvalues --   -0.09851
  Beta virt. eigenvalues --    0.06418   0.07441   0.07773   0.08178   0.09255
  Beta virt. eigenvalues --    0.09546   0.09683   0.09921   0.10118   0.10758
  Beta virt. eigenvalues --    0.11193   0.12189   0.12494   0.12647   0.12736

 Mulliken charges and spin densities:
               1          2
     1  C   -0.664240   0.026661
     2  C    0.930497  -0.010905
     3  C   -0.421579   0.169676
     4  C   -0.789106   0.291847
     5  C   -0.023005   0.179320
     6  C   -0.040249  -0.794814
     7  C    0.089656  -0.083326
     8  C   -0.352892  -0.432679
     9  C   -0.760780   1.041651
    10  C    0.059859   0.398417
    11  C   -0.037721  -0.689097
    12  C    0.210085  -0.693661
    13  C    0.531968  -0.790464
    14  C   -0.435407   0.134474
    15  O   -0.373666   0.135981
    16  C   -0.408019  -0.045842
    17  H    0.064157   0.017046
    18  H    0.132616   0.034861
    19  H    0.158134   0.002605
    20  H    0.163704  -0.000819
    21  H    0.148083   0.026677
    22  H    0.159485  -0.007098
    23  H    0.376870  -0.128934
    24  H    0.002755   0.139207
    25  H    0.216604  -0.044108
    26  H    0.012588   0.193016
    27  H   -0.288974   0.437131
    28  H    0.121504   0.011568
    29  H    0.110216   0.034776
    30  H   -0.044122   0.191721
    31  H    0.064254   0.086388
    32  H    0.016195   0.104358
    33  H   -0.130074   0.302179
    34  H    0.058984   0.066482
    35  H   -0.143236   0.271988
    36  H    0.030153   0.100232
    37  H   -0.094589   0.252576
    38  H    0.124237   0.007018
    39  H    0.068991   0.063484
    40  H    0.156064   0.000408
 Sum of Mulliken charges =  -1.00000   1.00000

 Dipole moment (field-independent basis, Debye):
    X=              3.4482    Y=             -0.3399    Z=             -0.4074  Tot=              3.4888
 Quadrupole moment (field-independent basis, Debye-Ang):
   XX=           -208.1247   YY=           -125.7896   ZZ=           -121.0080
   XY=              6.5860   XZ=              6.7637   YZ=             -1.1222

 Summary of Natural Population Analysis:

                                       Natural Population
                Natural  -----------------------------------------------
    Atom  No    Charge         Core      Valence    Rydberg      Total
 -----------------------------------------------------------------------
      C    1   -0.29647      0.99964     2.29125    0.00557     3.29647
      C    2   -0.06017      0.99944     2.05027    0.01046     3.06017
      C    3   -0.00842      0.99949     2.00074    0.00818     3.00842
      C    4   -0.21485      0.99960     2.20621    0.00903     3.21485
      C    5   -0.08832      0.99956     2.07773    0.01103     3.08832
      C    6   -0.19335      0.99961     2.18520    0.00854     3.19335
      C    7   -0.11139      0.99954     2.10188    0.00997     3.11139
      C    8   -0.19296      0.99957     2.18371    0.00969     3.19296
      C    9   -0.03355      0.99950     2.01953    0.01452     3.03355
      C   10   -0.03496      0.99953     2.02220    0.01324     3.03496
      C   11   -0.28750      0.99963     2.28050    0.00736     3.28750
      C   12   -0.28424      0.99963     2.27699    0.00763     3.28424
      C   13   -0.28209      0.99961     2.27602    0.00645     3.28209
      C   14    0.29424      0.99964     1.68473    0.02139     2.70576
      O   15   -0.27197      0.99988     3.26547    0.00662     4.27197
      C   16   -0.33164      0.99964     2.32791    0.00408     3.33164
      H   17    0.09174      0.00000     0.40729    0.00097     0.40826
      H   18    0.10356      0.00000     0.39488    0.00156     0.39644
      H   19    0.10428      0.00000     0.39461    0.00111     0.39572
      H   20    0.08756      0.00000     0.41126    0.00119     0.41244
      H   21    0.09787      0.00000     0.40071    0.00142     0.40213
      H   22    0.10258      0.00000     0.39632    0.00110     0.39742
      H   23    0.09741      0.00000     0.40109    0.00150     0.40259
      H   24    0.09484      0.00000     0.40412    0.00104     0.40516
      H   25    0.10926      0.00000     0.38972    0.00102     0.39074
      H   26    0.10153      0.00000     0.39752    0.00095     0.39847
      H   27    0.10124      0.00000     0.39774    0.00102     0.39876
      H   28    0.10043      0.00000     0.39843    0.00114     0.39957
      H   29    0.09994      0.00000     0.39933    0.00074     0.40006
      H   30    0.10030      0.00000     0.39890    0.00081     0.39970
      H   31    0.10261      0.00000     0.39666    0.00073     0.39739
      H   32    0.09795      0.00000     0.40119    0.00086     0.40205
      H   33    0.10036      0.00000     0.39868    0.00097     0.39964
      H   34    0.09816      0.00000     0.40110    0.00074     0.40184
      H   35    0.10047      0.00000     0.39855    0.00098     0.39953
      H   36    0.09905      0.00000     0.40000    0.00095     0.40095
      H   37    0.09997      0.00000     0.39902    0.00101     0.40003
      H   38    0.10183      0.00000     0.39730    0.00087     0.39817
      H   39    0.10197      0.00000     0.39594    0.00209     0.39803
      H   40    0.10275      0.00000     0.39610    0.00115     0.39725
 =======================================================================
   * Total *    0.00000     15.99352    44.82682    0.17966    61.00000

 Normal termination of Gaussian 16 at Thu Dec 10 23:29:24 2020.
