 Gaussian 16, Revision A.03,

 -----------------------------------------------------------
 # opt freq B3LYP/6-31G(d) empiricaldispersion=gd3bj scf=xqc
 -----------------------------------------------------------

 -------------------------------
 CID_136838579_JID_9992_neutraal
 -------------------------------
 Symbolic Z-matrix:
 Charge =  0 Multiplicity = 1

 SCF Done:  E(RB3LYP) =  -1162.78934825     A.U. after   16 cycles
 SCF Done:  E(RB3LYP) =  -1162.79515289     A.U. after   12 cycles
 SCF Done:  E(RB3LYP) =  -1162.79625895     A.U. after   12 cycles
 SCF Done:  E(RB3LYP) =  -1162.79690998     A.U. after   12 cycles
 SCF Done:  E(RB3LYP) =  -1162.79736460     A.U. after   13 cycles
 SCF Done:  E(RB3LYP) =  -1162.79766355     A.U. after   13 cycles
 SCF Done:  E(RB3LYP) =  -1162.79785765     A.U. after   13 cycles
 SCF Done:  E(RB3LYP) =  -1162.79815622     A.U. after   13 cycles
 SCF Done:  E(RB3LYP) =  -1162.79825955     A.U. after   13 cycles
 SCF Done:  E(RB3LYP) =  -1162.79833791     A.U. after   12 cycles
 SCF Done:  E(RB3LYP) =  -1162.79850601     A.U. after    9 cycles
 SCF Done:  E(RB3LYP) =  -1162.79850674     A.U. after    9 cycles
 SCF Done:  E(RB3LYP) =  -1162.79850695     A.U. after    9 cycles
 SCF Done:  E(RB3LYP) =  -1162.79850701     A.U. after    7 cycles
 SCF Done:  E(RB3LYP) =  -1162.79850704     A.U. after    8 cycles
 Optimization completed.
    -- Stationary point found.
 Normal termination of Gaussian 16 at Mon Dec 14 19:01:29 2020.

 --------------------------------------------------------------------
 #N Geom=AllCheck Guess=TCheck SCRF=Check GenChk RB3LYP/6-31G(d) Freq
 --------------------------------------------------------------------

 Structure from the checkpoint file:  "JID_9992.chk"
 -------------------------------
 CID_136838579_JID_9992_neutraal
 -------------------------------
 Charge =  0 Multiplicity = 1

 SCF Done:  E(RB3LYP) =  -1162.79850704     A.U. after    1 cycles

  Exact polarizability: 219.342   3.242 183.598   9.463  -1.364 133.215
 Approx polarizability: 329.773   1.696 270.785  19.416  -7.759 222.626

                      1                      2                      3
                      A                      A                      A
 Frequencies --     24.3325                26.1920                48.7361
 Red. masses --      4.1753                 6.3228                 5.0308
 Frc consts  --      0.0015                 0.0026                 0.0070
 IR Inten    --      0.3213                 0.3781                 0.8222

                      4                      5                      6
                      A                      A                      A
 Frequencies --     57.7483                75.0997                79.5543
 Red. masses --      5.2052                 4.3789                 2.6213
 Frc consts  --      0.0102                 0.0146                 0.0098
 IR Inten    --      0.5121                 1.8189                 0.1076

                      7                      8                      9
                      A                      A                      A
 Frequencies --    137.9967               166.5879               193.8121
 Red. masses --      2.9086                 3.3694                 6.1186
 Frc consts  --      0.0326                 0.0551                 0.1354
 IR Inten    --      2.1366                 0.5612                 9.5887

                     10                     11                     12
                      A                      A                      A
 Frequencies --    205.6890               235.2971               239.6151
 Red. masses --      3.7186                 1.1044                 2.5513
 Frc consts  --      0.0927                 0.0360                 0.0863
 IR Inten    --      1.2335                 0.6092                 0.6553

                     13                     14                     15
                      A                      A                      A
 Frequencies --    261.0663               294.0146               294.6553
 Red. masses --      1.8327                 2.7184                 2.0809
 Frc consts  --      0.0736                 0.1385                 0.1064
 IR Inten    --      1.9101                 0.6365                 1.6625

                     16                     17                     18
                      A                      A                      A
 Frequencies --    327.1830               339.4807               377.0983
 Red. masses --      3.1974                 2.7170                 2.2685
 Frc consts  --      0.2017                 0.1845                 0.1901
 IR Inten    --      4.4332                 1.4221                 0.8800

                     19                     20                     21
                      A                      A                      A
 Frequencies --    411.1663               427.5032               448.6669
 Red. masses --      2.6220                 2.2839                 2.3413
 Frc consts  --      0.2612                 0.2459                 0.2777
 IR Inten    --      0.9913                 0.6554                27.8535

                     22                     23                     24
                      A                      A                      A
 Frequencies --    476.1653               494.2953               525.4877
 Red. masses --      3.5733                 4.4783                 3.2027
 Frc consts  --      0.4773                 0.6447                 0.5211
 IR Inten    --     10.4204                 1.3927                52.4987

                     25                     26                     27
                      A                      A                      A
 Frequencies --    548.5271               566.7900               607.9416
 Red. masses --      2.6217                 3.0326                 4.9450
 Frc consts  --      0.4648                 0.5740                 1.0768
 IR Inten    --     23.8251                43.4366                 8.4807

                     28                     29                     30
                      A                      A                      A
 Frequencies --    635.2801               654.7780               693.3764
 Red. masses --      6.0919                 5.6187                 2.4930
 Frc consts  --      1.4486                 1.4193                 0.7062
 IR Inten    --      4.8711                 3.3960                 8.5106

                     31                     32                     33
                      A                      A                      A
 Frequencies --    721.6074               723.6347               740.8920
 Red. masses --      2.7106                 2.3805                 1.3089
 Frc consts  --      0.8316                 0.7344                 0.4233
 IR Inten    --      5.6911                25.7898                20.4678

                     34                     35                     36
                      A                      A                      A
 Frequencies --    742.8502               764.3993               778.7539
 Red. masses --      1.9820                 4.8090                 2.8704
 Frc consts  --      0.6444                 1.6555                 1.0256
 IR Inten    --     36.1955                10.0412                 2.8570

                     37                     38                     39
                      A                      A                      A
 Frequencies --    803.8932               810.6104               889.7557
 Red. masses --      2.9627                 3.6189                 4.5091
 Frc consts  --      1.1281                 1.4010                 2.1032
 IR Inten    --      7.6789                 7.0161                 1.3541

                     40                     41                     42
                      A                      A                      A
 Frequencies --    893.3550               900.7848               911.3088
 Red. masses --      1.3150                 1.8725                 2.1971
 Frc consts  --      0.6183                 0.8952                 1.0751
 IR Inten    --      1.0532                 0.5964                 6.9454

                     43                     44                     45
                      A                      A                      A
 Frequencies --    917.1652               945.0789               968.3740
 Red. masses --      2.0558                 1.1968                 2.8072
 Frc consts  --      1.0189                 0.6298                 1.5510
 IR Inten    --      2.5246                 2.7701                28.0901

                     46                     47                     48
                      A                      A                      A
 Frequencies --    977.8629               995.1319              1014.3039
 Red. masses --      1.4171                 1.8431                 2.6049
 Frc consts  --      0.7984                 1.0754                 1.5790
 IR Inten    --      0.6300                 1.5501                 1.5563

                     49                     50                     51
                      A                      A                      A
 Frequencies --   1016.3223              1050.5241              1079.3542
 Red. masses --      2.2290                 2.8575                 1.8620
 Frc consts  --      1.3565                 1.8580                 1.2781
 IR Inten    --     17.6862                 1.9062                 7.4690

                     52                     53                     54
                      A                      A                      A
 Frequencies --   1093.6424              1108.2926              1124.3251
 Red. masses --      1.5630                 2.0213                 1.7829
 Frc consts  --      1.1014                 1.4628                 1.3279
 IR Inten    --      7.5555                 1.9559                 4.9426

                     55                     56                     57
                      A                      A                      A
 Frequencies --   1146.0692              1153.9724              1184.6492
 Red. masses --      2.2352                 1.9367                 1.5784
 Frc consts  --      1.7298                 1.5195                 1.3051
 IR Inten    --     38.1217                 2.8544                 6.8353

                     58                     59                     60
                      A                      A                      A
 Frequencies --   1199.3777              1207.6068              1209.0620
 Red. masses --      2.8568                 1.7467                 1.9752
 Frc consts  --      2.4213                 1.5008                 1.7012
 IR Inten    --      3.6020                 8.6781                 1.9387

                     61                     62                     63
                      A                      A                      A
 Frequencies --   1227.9602              1235.9227              1252.4536
 Red. masses --      1.6420                 1.3514                 1.6845
 Frc consts  --      1.4587                 1.2162                 1.5568
 IR Inten    --      4.1485                 0.5461                16.3815

                     64                     65                     66
                      A                      A                      A
 Frequencies --   1281.7592              1294.7551              1336.0314
 Red. masses --      1.4246                 2.3016                 1.6683
 Frc consts  --      1.3790                 2.2733                 1.7545
 IR Inten    --      2.1939                29.1260                 5.7683

                     67                     68                     69
                      A                      A                      A
 Frequencies --   1354.0977              1359.5606              1368.0996
 Red. masses --      1.2460                 1.8778                 1.4054
 Frc consts  --      1.3461                 2.0450                 1.5498
 IR Inten    --      3.6833                 0.3998                21.6400

                     70                     71                     72
                      A                      A                      A
 Frequencies --   1378.8578              1388.9562              1391.1654
 Red. masses --      1.6645                 1.4716                 1.4182
 Frc consts  --      1.8645                 1.6727                 1.6172
 IR Inten    --     50.1596                19.2089                 3.7609

                     73                     74                     75
                      A                      A                      A
 Frequencies --   1395.2839              1410.8847              1428.9427
 Red. masses --      1.3560                 1.5642                 1.2914
 Frc consts  --      1.5553                 1.8345                 1.5536
 IR Inten    --      3.7121                 6.6903                 9.1922

                     76                     77                     78
                      A                      A                      A
 Frequencies --   1433.6893              1447.2798              1464.2403
 Red. masses --      2.3233                 1.2598                 2.4699
 Frc consts  --      2.8136                 1.5548                 3.1200
 IR Inten    --     47.9314                10.5442                 7.7350

                     79                     80                     81
                      A                      A                      A
 Frequencies --   1493.7731              1502.4147              1506.9715
 Red. masses --      2.4706                 1.5333                 1.0790
 Frc consts  --      3.2481                 2.0392                 1.4437
 IR Inten    --     15.8906                 4.6445                 1.6748

                     82                     83                     84
                      A                      A                      A
 Frequencies --   1511.8354              1522.2114              1525.7638
 Red. masses --      1.1709                 1.1312                 1.0507
 Frc consts  --      1.5768                 1.5443                 1.4411
 IR Inten    --      3.7129                 0.2394                 4.7358

                     85                     86                     87
                      A                      A                      A
 Frequencies --   1533.9417              1536.7108              1538.1190
 Red. masses --      1.2452                 1.4397                 1.3998
 Frc consts  --      1.7263                 2.0031                 1.9512
 IR Inten    --      1.5244                 2.6769                 8.1198

                     88                     89                     90
                      A                      A                      A
 Frequencies --   1546.8542              1564.9781              1574.9556
 Red. masses --      1.0541                 6.2037                 4.0940
 Frc consts  --      1.4860                 8.9520                 5.9832
 IR Inten    --     12.1175                16.4168                61.7460

                     91                     92                     93
                      A                      A                      A
 Frequencies --   1638.6992              3014.0541              3020.2645
 Red. masses --      5.1871                 1.0707                 1.0595
 Frc consts  --      8.2067                 5.7311                 5.6942
 IR Inten    --    230.0044                48.2457                24.5652

                     94                     95                     96
                      A                      A                      A
 Frequencies --   3032.4953              3034.7495              3041.7760
 Red. masses --      1.0372                 1.0617                 1.0608
 Frc consts  --      5.6199                 5.7609                 5.7830
 IR Inten    --     33.6682                11.5098                35.5868

                     97                     98                     99
                      A                      A                      A
 Frequencies --   3048.8144              3059.7577              3065.9828
 Red. masses --      1.0671                 1.1013                 1.0828
 Frc consts  --      5.8443                 6.0746                 5.9971
 IR Inten    --     45.6664                42.7826                 8.2516

                    100                    101                    102
                      A                      A                      A
 Frequencies --   3086.8653              3092.7292              3100.1247
 Red. masses --      1.0682                 1.1009                 1.1007
 Frc consts  --      5.9970                 6.2039                 6.2329
 IR Inten    --     19.9570                 8.0624                75.4443

                    103                    104                    105
                      A                      A                      A
 Frequencies --   3105.2747              3106.5735              3110.0559
 Red. masses --      1.1018                 1.0929                 1.0959
 Frc consts  --      6.2600                 6.2141                 6.2455
 IR Inten    --     43.7756                49.1704                35.3230

                    106                    107                    108
                      A                      A                      A
 Frequencies --   3134.1663              3159.5795              3233.4864
 Red. masses --      1.0982                 1.0997                 1.0911
 Frc consts  --      6.3556                 6.4684                 6.7215
 IR Inten    --     23.5563                 4.6629                12.4305

                    109                    110                    111
                      A                      A                      A
 Frequencies --   3267.4082              3276.9810              3587.1491
 Red. masses --      1.0966                 1.0982                 1.0758
 Frc consts  --      6.8974                 6.9484                 8.1563
 IR Inten    --      3.0896                 2.5907                12.1754

 - Thermochemistry -
 -------------------
 Temperature   298.150 Kelvin.  Pressure   1.00000 Atm.
 Atom     1 has atomic number  6 and mass  12.00000

 Molecular mass:   276.14087 amu.
 Principal axes and moments of inertia in atomic units:
                           1         2         3
     Eigenvalues --  3745.247526177.214538652.11726
           X            0.99943  -0.03368  -0.00199
           Y            0.03368   0.99943   0.00120
           Z            0.00195  -0.00126   1.00000
 This molecule is an asymmetric top.
 Rotational symmetry number  1.
 Warning -- assumption of classical behavior for rotation
           may cause significant error
 Rotational temperatures (Kelvin)      0.02313     0.01402     0.01001
 Rotational constants (GHZ):           0.48188     0.29216     0.20859
 Zero-point vibrational energy     873109.8 (Joules/Mol)
                                  208.67824 (Kcal/Mol)
 Warning -- explicit consideration of  27 degrees of freedom as
           vibrations may cause significant error
 Vibrational temperatures:     35.01    37.68    70.12    83.09   108.05
          (Kelvin)            114.46   198.55   239.68   278.85   295.94
                              338.54   344.75   375.62   423.02   423.94
                              470.74   488.44   542.56   591.58   615.08
                              645.53   685.10   711.18   756.06   789.21
                              815.48   874.69   914.03   942.08   997.61
                             1038.23  1041.15  1065.98  1068.80  1099.80
                             1120.45  1156.62  1166.29  1280.16  1285.34
                             1296.03  1311.17  1319.60  1359.76  1393.27
                             1406.93  1431.77  1459.36  1462.26  1511.47
                             1552.95  1573.51  1594.59  1617.65  1648.94
                             1660.31  1704.45  1725.64  1737.48  1739.57
                             1766.76  1778.22  1802.00  1844.17  1862.86
                             1922.25  1948.24  1956.10  1968.39  1983.87
                             1998.40  2001.58  2007.50  2029.95  2055.93
                             2062.76  2082.31  2106.72  2149.21  2161.64
                             2168.20  2175.19  2190.12  2195.23  2207.00
                             2210.98  2213.01  2225.58  2251.65  2266.01
                             2357.72  4336.55  4345.49  4363.08  4366.33
                             4376.44  4386.56  4402.31  4411.27  4441.31
                             4449.75  4460.39  4467.80  4469.67  4474.68
                             4509.37  4545.93  4652.27  4701.07  4714.84
                             5161.11

 Zero-point correction=                           0.332550 (Hartree/Particle)
 Thermal correction to Energy=                    0.350328
 Thermal correction to Enthalpy=                  0.351272
 Thermal correction to Gibbs Free Energy=         0.285283
 Sum of electronic and zero-point Energies=          -1162.465957
 Sum of electronic and thermal Energies=             -1162.448179
 Sum of electronic and thermal Enthalpies=           -1162.447235
 Sum of electronic and thermal Free Energies=        -1162.513224

                     E (Thermal)             CV                S
                      KCal/Mol        Cal/Mol-Kelvin    Cal/Mol-Kelvin
 Total                  219.834             69.114            138.886
 Electronic               0.000              0.000              0.000
 Translational            0.889              2.981             42.746
 Rotational               0.889              2.981             33.659
 Vibrational            218.057             63.153             62.482
 Vibration     1          0.593              1.985              6.245
 Vibration     2          0.593              1.985              6.099
 Vibration     3          0.595              1.978              4.868
 Vibration     4          0.596              1.974              4.533
 Vibration     5          0.599              1.966              4.015
 Vibration     6          0.600              1.963              3.902
 Vibration     7          0.614              1.915              2.831
 Vibration     8          0.624              1.884              2.474
 Vibration     9          0.635              1.848              2.191
 Vibration    10          0.640              1.832              2.082
 Vibration    11          0.655              1.787              1.838
 Vibration    12          0.657              1.780              1.806
 Vibration    13          0.669              1.744              1.655
 Vibration    14          0.689              1.685              1.451
 Vibration    15          0.689              1.684              1.447
 Vibration    16          0.711              1.621              1.274
 Vibration    17          0.719              1.597              1.215
 Vibration    18          0.748              1.519              1.051
 Vibration    19          0.775              1.446              0.923
 Vibration    20          0.789              1.410              0.867
 Vibration    21          0.808              1.364              0.800
 Vibration    22          0.833              1.303              0.720
 Vibration    23          0.850              1.263              0.673
 Vibration    24          0.880              1.194              0.597
 Vibration    25          0.904              1.143              0.547
 Vibration    26          0.923              1.103              0.510
 Vibration    27          0.967              1.015              0.436

                           ! Non-Optimized Parameters !
 Normal termination of Gaussian 16 at Mon Dec 14 19:22:06 2020.

 ----------------------------------------------------------------------
 # B3LYP/6-311++G(d,p) empiricaldispersion=gd3bj scf=xqc pop=npa geom=c
 heck
 ----------------------------------------------------------------------

 ---------------------------------------
 CID_136838579_JID_9992_Energie_neutraal
 ---------------------------------------
 Structure from the checkpoint file:  "JID_9992.chk"
 Charge =  0 Multiplicity = 1

 SCF Done:  E(RB3LYP) =  -1163.02736719     A.U. after   16 cycles
 Normal termination of Gaussian 16 at Mon Dec 14 19:30:47 2020.

 ----------------------------------------------------------------------
 # B3LYP/6-311++G(d,p) empiricaldispersion=gd3bj scf=xqc pop=npa geom=c
 heck
 ----------------------------------------------------------------------

 -------------------------------------
 CID_136838579_JID_9992_Energie_kation
 -------------------------------------
 Structure from the checkpoint file:  "JID_9992.chk"
 Charge =  1 Multiplicity = 2

 SCF Done:  E(UB3LYP) =  -1162.75516006     A.U. after   26 cycles
 Normal termination of Gaussian 16 at Mon Dec 14 19:49:00 2020.
 Gaussian 16:  ES64L-G16RevA.03 25-Dec-2016

 ----------------------------------------------------------------------
 # B3LYP/6-311++G(d,p) empiricaldispersion=gd3bj scf=xqc pop=npa geom=c
 heck
 ----------------------------------------------------------------------

 ------------------------------------
 CID_136838579_JID_9992_Energie_anion
 ------------------------------------
 Structure from the checkpoint file:  "JID_9992.chk"
 Charge = -1 Multiplicity = 2

                         Standard orientation:
 ---------------------------------------------------------------------
 Center     Atomic      Atomic             Coordinates (Angstroms)
 Number     Number       Type             X           Y           Z
 ---------------------------------------------------------------------
      1          6           0       -3.142739    1.595184   -0.761972
      2          6           0       -3.163174    0.664117    0.455901
      3          6           0       -4.029709    1.249386    1.577278
      4          6           0       -3.644175   -0.751326    0.096160
      5          6           0       -2.798211   -1.473155   -0.971900
      6          6           0       -1.351984   -1.582145   -0.593281
      7          7           0       -0.427473   -0.879090   -1.248625
      8          7           0        0.751831   -1.199733   -0.625613
      9          6           0        1.981518   -0.502533   -0.945629
     10          6           0        3.154397   -1.319395   -0.379589
     11          6           0        2.880105   -1.722726    1.070255
     12          7           0        1.664294   -2.540911    1.122860
     13          6           0        0.573494   -2.065562    0.411743
     14          6           0       -0.784780   -2.346845    0.459259
     15          6           0        1.970707    0.913664   -0.399603
     16          7           0        3.044564    1.535295   -0.000608
     17          6           0        2.752532    2.813694    0.421977
     18          6           0        1.438160    3.171166    0.346098
     19         16           0        0.494700    1.861347   -0.290112
     20          1           0       -4.138110    1.659084   -1.221990
     21          1           0       -2.434220    1.250115   -1.520222
     22          1           0       -2.846644    2.610026   -0.470487
     23          1           0       -2.134017    0.579433    0.830254
     24          1           0       -5.071121    1.364596    1.249003
     25          1           0       -4.029555    0.601816    2.462414
     26          1           0       -3.667380    2.237964    1.883283
     27          1           0       -3.655209   -1.361340    1.009928
     28          1           0       -4.685033   -0.701212   -0.255205
     29          1           0       -3.215323   -2.475876   -1.131674
     30          1           0       -2.862091   -0.947623   -1.929433
     31          1           0        2.049894   -0.455234   -2.038588
     32          1           0        4.061486   -0.715648   -0.432265
     33          1           0        3.285155   -2.218967   -0.989855
     34          1           0        3.709873   -2.322001    1.456091
     35          1           0        2.799012   -0.815676    1.688630
     36          1           0        1.420632   -2.872600    2.047687
     37          1           0       -1.287499   -3.022794    1.135743
     38          1           0        3.555162    3.444400    0.786133
     39          1           0        0.980418    4.109911    0.626078
 ---------------------------------------------------------------------

 SCF Done:  E(UB3LYP) =  -1163.01814993     A.U. after   33 cycles
 SCF Done:  E(UB3LYP) =  -1163.01814993     a.u. after    1 cycles

 The electronic state is 2-A.
 Alpha  occ. eigenvalues --  -88.76626 -14.27143 -14.22778 -14.21249 -14.20208
 Alpha  occ. eigenvalues --  -10.13799 -10.12939 -10.11929 -10.10570 -10.09486
 Alpha  occ. eigenvalues --  -10.08942 -10.08821 -10.07897 -10.07485 -10.07438
 Alpha  occ. eigenvalues --  -10.07203 -10.06734 -10.05935 -10.05040  -7.85236
 Alpha  occ. eigenvalues --   -5.81509  -5.81148  -5.80863  -0.94351  -0.85486
 Alpha  occ. eigenvalues --   -0.83683  -0.75693  -0.71991  -0.69201  -0.68552
 Alpha  occ. eigenvalues --   -0.66002  -0.63667  -0.63328  -0.59005  -0.58085
 Alpha  occ. eigenvalues --   -0.54636  -0.52905  -0.49109  -0.48375  -0.46291
 Alpha  occ. eigenvalues --   -0.44790  -0.43004  -0.41336  -0.40374  -0.39445
 Alpha  occ. eigenvalues --   -0.37593  -0.36880  -0.36283  -0.35070  -0.34537
 Alpha  occ. eigenvalues --   -0.33187  -0.32794  -0.31773  -0.31151  -0.30481
 Alpha  occ. eigenvalues --   -0.29682  -0.29577  -0.28813  -0.27602  -0.26764
 Alpha  occ. eigenvalues --   -0.26178  -0.25969  -0.25396  -0.24818  -0.23298
 Alpha  occ. eigenvalues --   -0.22785  -0.22452  -0.20312  -0.18704  -0.17655
 Alpha  occ. eigenvalues --   -0.17166  -0.14336  -0.13699  -0.10177   0.04248
 Alpha virt. eigenvalues --    0.06127   0.06276   0.07021   0.07776   0.07983
 Alpha virt. eigenvalues --    0.08515   0.08790   0.09349   0.10190   0.10308
 Alpha virt. eigenvalues --    0.10671   0.11066   0.11438   0.11718   0.12267

  Beta  occ. eigenvalues --  -88.76599 -14.27128 -14.22746 -14.21249 -14.20167
  Beta  occ. eigenvalues --  -10.13799 -10.12953 -10.11727 -10.10547 -10.09491
  Beta  occ. eigenvalues --  -10.08935 -10.08695 -10.07880 -10.07485 -10.07436
  Beta  occ. eigenvalues --  -10.07195 -10.06723 -10.05928 -10.05028  -7.85211
  Beta  occ. eigenvalues --   -5.81498  -5.81138  -5.80770  -0.94336  -0.85318
  Beta  occ. eigenvalues --   -0.83643  -0.75646  -0.71974  -0.69130  -0.68425
  Beta  occ. eigenvalues --   -0.65971  -0.63518  -0.63267  -0.58986  -0.58026
  Beta  occ. eigenvalues --   -0.54607  -0.52859  -0.48934  -0.48297  -0.46197
  Beta  occ. eigenvalues --   -0.44749  -0.42945  -0.41215  -0.40271  -0.39368
  Beta  occ. eigenvalues --   -0.37553  -0.36826  -0.36253  -0.35033  -0.34498
  Beta  occ. eigenvalues --   -0.33161  -0.32736  -0.31722  -0.31082  -0.30402
  Beta  occ. eigenvalues --   -0.29573  -0.29286  -0.28792  -0.27576  -0.26730
  Beta  occ. eigenvalues --   -0.26069  -0.25953  -0.25302  -0.24734  -0.23282
  Beta  occ. eigenvalues --   -0.22772  -0.22437  -0.20283  -0.18679  -0.17162
  Beta  occ. eigenvalues --   -0.17089  -0.13956  -0.13350  -0.10141
  Beta virt. eigenvalues --    0.06187   0.07056   0.07214   0.07560   0.08019
  Beta virt. eigenvalues --    0.08413   0.08758   0.09125   0.09692   0.10332
  Beta virt. eigenvalues --    0.10488   0.10616   0.11158   0.11537   0.11816

 Mulliken charges and spin densities:
               1          2
     1  C   -0.364007  -0.373018
     2  C   -0.083915   0.491766
     3  C   -0.240365  -0.257365
     4  C   -0.053057  -0.341174
     5  C   -0.181228  -0.390293
     6  C    0.563498  -0.508060
     7  N    0.231988  -0.001155
     8  N    0.087853  -0.066417
     9  C    0.056515  -0.015148
    10  C    0.216093  -0.706314
    11  C   -0.030647  -0.398265
    12  N   -0.269324   0.183217
    13  C    0.122132  -0.755606
    14  C    0.034841   0.177743
    15  C   -0.258085   0.059104
    16  N   -0.022820   0.062910
    17  C   -0.075930  -0.118075
    18  C   -0.067067   0.201848
    19  S   -0.300436   0.127365
    20  H    0.087132   0.043305
    21  H    0.157448  -0.016888
    22  H    0.038252   0.079464
    23  H    0.281392  -0.179616
    24  H    0.036237   0.082709
    25  H   -0.042982   0.181480
    26  H    0.044751   0.085128
    27  H    0.059065   0.069544
    28  H    0.085612   0.051776
    29  H    0.093701   0.085083
    30  H    0.129200   0.037545
    31  H   -0.136371   0.369118
    32  H    0.047782   0.159688
    33  H   -0.032324   0.206555
    34  H   -0.609108   0.808788
    35  H    0.181543  -0.019685
    36  H   -0.404084   0.680519
    37  H   -0.436029   0.606880
    38  H    0.048268   0.093934
    39  H    0.004474   0.201606
 Sum of Mulliken charges =  -1.00000   1.00000

 Dipole moment (field-independent basis, Debye):
    X=             -3.1439    Y=              3.7033    Z=             -2.0857  Tot=              5.2866
 Quadrupole moment (field-independent basis, Debye-Ang):
   XX=           -182.6714   YY=           -172.7662   ZZ=           -158.6649
   XY=              9.0523   XZ=             -0.4098   YZ=             11.0181

 Summary of Natural Population Analysis:

                                       Natural Population
                Natural  -----------------------------------------------
    Atom  No    Charge         Core      Valence    Rydberg      Total
 -----------------------------------------------------------------------
      C    1   -0.28707      0.99965     2.28228    0.00514     3.28707
      C    2   -0.12601      0.99961     2.11667    0.00973     3.12601
      C    3   -0.28036      0.99965     2.27609    0.00461     3.28036
      C    4   -0.18052      0.99961     2.17203    0.00888     3.18052
      C    5   -0.20299      0.99959     2.19519    0.00821     3.20299
      C    6    0.08507      0.99959     1.89921    0.01612     2.91493
      N    7   -0.17844      0.99970     2.66822    0.01052     3.67844
      N    8   -0.13031      0.99960     2.61796    0.01275     3.63031
      C    9   -0.02181      0.99952     2.00777    0.01452     3.02181
      C   10   -0.19611      0.99961     2.18678    0.00971     3.19611
      C   11   -0.08562      0.99961     2.07511    0.01089     3.08562
      N   12   -0.31790      0.99968     2.80693    0.01129     3.81790
      C   13    0.19544      0.99951     1.79129    0.01375     2.80456
      C   14   -0.19087      0.99946     2.18266    0.00875     3.19087
      C   15    0.06568      0.99958     1.91718    0.01756     2.93432
      N   16   -0.25309      0.99964     2.74176    0.01169     3.75309
      C   17   -0.02804      0.99953     2.01415    0.01436     3.02804
      C   18   -0.19628      0.99954     2.18658    0.01016     3.19628
      S   19    0.21378      4.99942     2.76638    0.02042     7.78622
      H   20    0.09032      0.00000     0.40882    0.00086     0.40968
      H   21    0.10873      0.00000     0.39012    0.00115     0.39127
      H   22    0.09768      0.00000     0.40137    0.00095     0.40232
      H   23    0.10306      0.00000     0.39418    0.00275     0.39694
      H   24    0.09225      0.00000     0.40682    0.00094     0.40775
      H   25    0.09840      0.00000     0.40071    0.00090     0.40160
      H   26    0.09750      0.00000     0.40162    0.00088     0.40250
      H   27    0.09697      0.00000     0.40190    0.00113     0.40303
      H   28    0.09174      0.00000     0.40731    0.00095     0.40826
      H   29    0.10125      0.00000     0.39777    0.00098     0.39875
      H   30    0.10520      0.00000     0.39363    0.00117     0.39480
      H   31    0.11667      0.00000     0.38167    0.00166     0.38333
      H   32    0.11770      0.00000     0.38053    0.00176     0.38230
      H   33    0.10282      0.00000     0.39590    0.00128     0.39718
      H   34    0.10066      0.00000     0.39733    0.00201     0.39934
      H   35    0.09104      0.00000     0.40724    0.00173     0.40896
      H   36    0.19334      0.00000     0.30009    0.00657     0.30666
      H   37    0.10840      0.00000     0.39057    0.00103     0.39160
      H   38    0.09454      0.00000     0.40445    0.00101     0.40546
      H   39    0.10718      0.00000     0.39192    0.00090     0.39282
 =======================================================================
   * Total *   -0.00000     22.99213    50.75817    0.24970    74.00000

 Normal termination of Gaussian 16 at Mon Dec 14 20:12:20 2020.
