 Gaussian 16, Revision A.03,

 -----------------------------------------------------------
 # opt freq B3LYP/6-31G(d) empiricaldispersion=gd3bj scf=xqc
 -----------------------------------------------------------

 -------------------------------
 CID_63077291_JID_10351_neutraal
 -------------------------------
 Symbolic Z-matrix:
 Charge =  0 Multiplicity = 1

 SCF Done:  E(RB3LYP) =  -898.907935713     A.U. after   19 cycles
 SCF Done:  E(RB3LYP) =  -898.913671478     A.U. after   15 cycles
 SCF Done:  E(RB3LYP) =  -898.903690298     A.U. after   16 cycles
 SCF Done:  E(RB3LYP) =  -898.915817959     A.U. after   14 cycles
 SCF Done:  E(RB3LYP) =  -898.916518656     A.U. after   14 cycles
 SCF Done:  E(RB3LYP) =  -898.916895460     A.U. after   13 cycles
 SCF Done:  E(RB3LYP) =  -898.917395449     A.U. after   14 cycles
 SCF Done:  E(RB3LYP) =  -898.917710916     A.U. after   14 cycles
 SCF Done:  E(RB3LYP) =  -898.917685063     A.U. after   14 cycles
 SCF Done:  E(RB3LYP) =  -898.918114255     A.U. after   13 cycles
 SCF Done:  E(RB3LYP) =  -898.918486998     A.U. after    8 cycles
 SCF Done:  E(RB3LYP) =  -898.918482943     A.U. after   10 cycles
 SCF Done:  E(RB3LYP) =  -898.918488412     A.U. after   10 cycles
 SCF Done:  E(RB3LYP) =  -898.918488489     A.U. after    8 cycles
 SCF Done:  E(RB3LYP) =  -898.918488652     A.U. after    8 cycles
 SCF Done:  E(RB3LYP) =  -898.918488673     A.U. after    8 cycles
 Optimization completed.
    -- Stationary point found.
 Normal termination of Gaussian 16 at Mon Dec 14 18:01:06 2020.

 --------------------------------------------------------------------
 #N Geom=AllCheck Guess=TCheck SCRF=Check GenChk RB3LYP/6-31G(d) Freq
 --------------------------------------------------------------------

 Structure from the checkpoint file:  "JID_10351.chk"
 -------------------------------
 CID_63077291_JID_10351_neutraal
 -------------------------------
 Charge =  0 Multiplicity = 1

 SCF Done:  E(RB3LYP) =  -898.918488673     A.U. after    1 cycles

  Exact polarizability: 221.141 -16.058 165.053   9.921  21.224 156.129
 Approx polarizability: 301.190 -35.646 269.163  25.077  53.974 256.625

                      1                      2                      3
                      A                      A                      A
 Frequencies --     25.3716                36.7858                52.1866
 Red. masses --      3.9210                 3.9441                 5.7815
 Frc consts  --      0.0015                 0.0031                 0.0093
 IR Inten    --      0.2583                 0.5775                 0.0456

                      4                      5                      6
                      A                      A                      A
 Frequencies --     65.0878                77.4118                93.7673
 Red. masses --      3.2746                 3.9343                 3.2538
 Frc consts  --      0.0082                 0.0139                 0.0169
 IR Inten    --      0.1458                 1.2985                 0.7748

                      7                      8                      9
                      A                      A                      A
 Frequencies --    118.0318               123.7497               184.4923
 Red. masses --      3.6004                 3.2260                 3.8239
 Frc consts  --      0.0296                 0.0291                 0.0767
 IR Inten    --      0.2502                 0.8934                 0.9940

                     10                     11                     12
                      A                      A                      A
 Frequencies --    214.4305               218.2601               225.7216
 Red. masses --      3.0242                 2.6275                 3.3922
 Frc consts  --      0.0819                 0.0737                 0.1018
 IR Inten    --      0.5673                 0.1887                 3.0276

                     13                     14                     15
                      A                      A                      A
 Frequencies --    253.8947               266.6115               287.6100
 Red. masses --      1.2616                 3.6399                 1.9669
 Frc consts  --      0.0479                 0.1524                 0.0959
 IR Inten    --      1.2320                 1.6266                 1.1733

                     16                     17                     18
                      A                      A                      A
 Frequencies --    307.6031               318.1583               377.4661
 Red. masses --      3.0650                 3.5543                 4.9510
 Frc consts  --      0.1709                 0.2120                 0.4156
 IR Inten    --      1.7754                 1.8984                 3.1318

                     19                     20                     21
                      A                      A                      A
 Frequencies --    392.9084               417.2976               466.3259
 Red. masses --      3.9633                 4.3596                 5.0123
 Frc consts  --      0.3605                 0.4473                 0.6422
 IR Inten    --      2.8860                 0.9562                 2.4178

                     22                     23                     24
                      A                      A                      A
 Frequencies --    499.4162               536.7598               555.6732
 Red. masses --      3.9245                 1.8261                 4.1149
 Frc consts  --      0.5767                 0.3100                 0.7486
 IR Inten    --      2.1120                42.1275                 4.1582

                     25                     26                     27
                      A                      A                      A
 Frequencies --    583.0796               587.8285               621.4299
 Red. masses --      3.6281                 2.4784                 3.6710
 Frc consts  --      0.7267                 0.5046                 0.8353
 IR Inten    --      2.4374                 4.6810                 1.1013

                     28                     29                     30
                      A                      A                      A
 Frequencies --    625.9075               653.2103               688.6560
 Red. masses --      3.1993                 2.7733                 3.9648
 Frc consts  --      0.7385                 0.6972                 1.1078
 IR Inten    --      1.4170                 2.9389                15.8329

                     31                     32                     33
                      A                      A                      A
 Frequencies --    726.0142               739.7119               760.5188
 Red. masses --      2.4042                 2.6088                 3.6355
 Frc consts  --      0.7467                 0.8410                 1.2389
 IR Inten    --      7.7894                11.8274                20.6832

                     34                     35                     36
                      A                      A                      A
 Frequencies --    790.7110               811.9722               823.3018
 Red. masses --      2.6364                 3.4335                 2.1331
 Frc consts  --      0.9712                 1.3337                 0.8519
 IR Inten    --     36.5034                 0.6451                 9.1983

                     37                     38                     39
                      A                      A                      A
 Frequencies --    861.4964               873.0963               885.2929
 Red. masses --      4.2899                 2.1142                 1.9858
 Frc consts  --      1.8759                 0.9496                 0.9170
 IR Inten    --     12.4145                 3.5236                10.9318

                     40                     41                     42
                      A                      A                      A
 Frequencies --    902.0342               909.9039               918.0588
 Red. masses --      3.3523                 1.7597                 1.6096
 Frc consts  --      1.6071                 0.8584                 0.7993
 IR Inten    --     28.2184                 0.8519                 6.9246

                     43                     44                     45
                      A                      A                      A
 Frequencies --    926.7389               934.6919               951.8230
 Red. masses --      1.4754                 2.3301                 2.3683
 Frc consts  --      0.7466                 1.1994                 1.2642
 IR Inten    --      2.1812                 0.1016                 2.3047

                     46                     47                     48
                      A                      A                      A
 Frequencies --    968.6880               975.8180               999.1000
 Red. masses --      2.0679                 1.2843                 1.8789
 Frc consts  --      1.1433                 0.7205                 1.1050
 IR Inten    --      0.5391                 0.6785                 5.0785

                     49                     50                     51
                      A                      A                      A
 Frequencies --   1016.0319              1045.9510              1062.1631
 Red. masses --      1.9166                 2.3092                 1.6838
 Frc consts  --      1.1657                 1.4884                 1.1192
 IR Inten    --      3.4415                 1.2900                 9.3133

                     52                     53                     54
                      A                      A                      A
 Frequencies --   1072.0092              1080.9107              1084.2360
 Red. masses --      1.6633                 2.0940                 1.9648
 Frc consts  --      1.1262                 1.4415                 1.3609
 IR Inten    --      0.9403                18.8230                 5.1990

                     55                     56                     57
                      A                      A                      A
 Frequencies --   1115.6126              1123.9020              1154.0824
 Red. masses --      2.2165                 2.1055                 2.4875
 Frc consts  --      1.6253                 1.5669                 1.9520
 IR Inten    --      6.6867                 5.0154                15.4052

                     58                     59                     60
                      A                      A                      A
 Frequencies --   1159.9965              1175.8770              1195.4124
 Red. masses --      2.2852                 3.5007                 1.4990
 Frc consts  --      1.8117                 2.8519                 1.2621
 IR Inten    --     10.4869                27.8876                 6.3691

                     61                     62                     63
                      A                      A                      A
 Frequencies --   1197.9720              1214.1559              1223.9332
 Red. masses --      1.3798                 1.3844                 1.7199
 Frc consts  --      1.1667                 1.2024                 1.5180
 IR Inten    --      6.5735                26.1055                 5.7646

                     64                     65                     66
                      A                      A                      A
 Frequencies --   1226.6767              1238.3871              1260.6004
 Red. masses --      1.9561                 1.7064                 1.5676
 Frc consts  --      1.7342                 1.5419                 1.4677
 IR Inten    --      5.8355                22.0642                16.4254

                     67                     68                     69
                      A                      A                      A
 Frequencies --   1265.8469              1276.4338              1315.8910
 Red. masses --      1.3359                 1.2344                 1.5089
 Frc consts  --      1.2612                 1.1849                 1.5394
 IR Inten    --      6.6620                12.0663                62.5919

                     70                     71                     72
                      A                      A                      A
 Frequencies --   1329.6633              1333.5677              1342.2280
 Red. masses --      1.3243                 1.4428                 1.4790
 Frc consts  --      1.3795                 1.5118                 1.5699
 IR Inten    --     53.3992                30.9602                13.8482

                     73                     74                     75
                      A                      A                      A
 Frequencies --   1346.4529              1352.4499              1359.1393
 Red. masses --      3.3793                 1.3937                 1.2854
 Frc consts  --      3.6097                 1.5020                 1.3990
 IR Inten    --      6.5640                23.2814                12.3621

                     76                     77                     78
                      A                      A                      A
 Frequencies --   1363.0034              1372.0796              1394.9564
 Red. masses --      1.5930                 1.3291                 1.4265
 Frc consts  --      1.7437                 1.4743                 1.6355
 IR Inten    --     21.9158                 2.6084                25.3013

                     79                     80                     81
                      A                      A                      A
 Frequencies --   1400.0330              1417.3270              1423.9250
 Red. masses --     11.1742                 1.5214                 1.3771
 Frc consts  --     12.9046                 1.8006                 1.6451
 IR Inten    --    267.8661                 8.8225                 6.9348

                     82                     83                     84
                      A                      A                      A
 Frequencies --   1440.3855              1461.6269              1488.3295
 Red. masses --      1.2367                 1.4523                 2.1509
 Frc consts  --      1.5118                 1.8280                 2.8072
 IR Inten    --      4.4640                22.6540                 3.4069

                     85                     86                     87
                      A                      A                      A
 Frequencies --   1496.1337              1515.0030              1517.3753
 Red. masses --      1.4716                 1.0922                 1.0941
 Frc consts  --      1.9409                 1.4770                 1.4841
 IR Inten    --      0.6030                 1.4028                 1.8406

                     88                     89                     90
                      A                      A                      A
 Frequencies --   1520.1896              1524.7972              1530.2981
 Red. masses --      1.8096                 1.1605                 1.1022
 Frc consts  --      2.4639                 1.5897                 1.5208
 IR Inten    --     48.1195                10.0189                 2.7563

                     91                     92                     93
                      A                      A                      A
 Frequencies --   1536.5184              1552.7919              1561.0551
 Red. masses --      1.0976                 1.0952                 1.0958
 Frc consts  --      1.5267                 1.5559                 1.5734
 IR Inten    --      2.5251                 1.6153                 1.9476

                     94                     95                     96
                      A                      A                      A
 Frequencies --   1623.5133              1629.8977              1667.0956
 Red. masses --      8.5267                 5.8989                 7.8553
 Frc consts  --     13.2416                 9.2330                12.8627
 IR Inten    --    191.4805                47.4559                24.7290

                     97                     98                     99
                      A                      A                      A
 Frequencies --   2940.4968              2943.2836              2967.8606
 Red. masses --      1.0816                 1.0745                 1.0748
 Frc consts  --      5.5099                 5.4841                 5.5779
 IR Inten    --     44.6953                87.5460                74.8827

                    100                    101                    102
                      A                      A                      A
 Frequencies --   3017.1137              3060.8317              3063.9677
 Red. masses --      1.0847                 1.0665                 1.0726
 Frc consts  --      5.8177                 5.8869                 5.9329
 IR Inten    --     55.7391                28.2247                 9.8260

                    103                    104                    105
                      A                      A                      A
 Frequencies --   3070.2948              3074.0910              3075.6598
 Red. masses --      1.0401                 1.0624                 1.0754
 Frc consts  --      5.7770                 5.9153                 5.9939
 IR Inten    --     13.8998                24.9164                74.6754

                    106                    107                    108
                      A                      A                      A
 Frequencies --   3090.1074              3110.1794              3117.6231
 Red. masses --      1.0641                 1.0987                 1.1000
 Frc consts  --      5.9866                 6.2618                 6.2991
 IR Inten    --     34.3666                26.6238                16.8806

                    109                    110                    111
                      A                      A                      A
 Frequencies --   3123.0731              3127.2222              3132.9121
 Red. masses --      1.1061                 1.0902                 1.0955
 Frc consts  --      6.3564                 6.2819                 6.3349
 IR Inten    --     50.0152                17.2983                12.2021

                    112                    113                    114
                      A                      A                      A
 Frequencies --   3138.1773              3164.2905              3204.7134
 Red. masses --      1.1050                 1.1031                 1.0884
 Frc consts  --      6.4119                 6.5074                 6.5860
 IR Inten    --     34.4986                 9.0846                10.5368

                    115                    116                    117
                      A                      A                      A
 Frequencies --   3226.4361              3255.4889              3545.1769
 Red. masses --      1.0924                 1.0928                 1.0749
 Frc consts  --      6.6998                 6.8240                 7.9595
 IR Inten    --     10.7072                 1.3899                 3.3747

 - Thermochemistry -
 -------------------
 Temperature   298.150 Kelvin.  Pressure   1.00000 Atm.
 Atom     1 has atomic number  6 and mass  12.00000

 Molecular mass:   275.16338 amu.
 Principal axes and moments of inertia in atomic units:
                           1         2         3
     Eigenvalues --  2937.547889194.656429801.15547
           X            0.99996   0.00527  -0.00680
           Y           -0.00511   0.99970   0.02401
           Z            0.00693  -0.02397   0.99969
 This molecule is an asymmetric top.
 Rotational symmetry number  1.
 Warning -- assumption of classical behavior for rotation
           may cause significant error
 Rotational temperatures (Kelvin)      0.02949     0.00942     0.00884
 Rotational constants (GHZ):           0.61437     0.19628     0.18414
 Zero-point vibrational energy     927638.4 (Joules/Mol)
                                  221.71089 (Kcal/Mol)
 Warning -- explicit consideration of  26 degrees of freedom as
           vibrations may cause significant error
 Vibrational temperatures:     36.50    52.93    75.08    93.65   111.38
          (Kelvin)            134.91   169.82   178.05   265.44   308.52
                              314.03   324.76   365.30   383.59   413.81
                              442.57   457.76   543.09   565.31   600.40
                              670.94   718.55   772.28   799.49   838.92
                              845.75   894.10   900.54   939.82   990.82
                             1044.57  1064.28  1094.22  1137.66  1168.25
                             1184.55  1239.50  1256.19  1273.74  1297.83
                             1309.15  1320.88  1333.37  1344.81  1369.46
                             1393.73  1403.98  1437.48  1461.84  1504.89
                             1528.22  1542.38  1555.19  1559.97  1605.12
                             1617.04  1660.47  1668.98  1691.82  1719.93
                             1723.61  1746.90  1760.97  1764.91  1781.76
                             1813.72  1821.27  1836.50  1893.27  1913.09
                             1918.71  1931.17  1937.25  1945.87  1955.50
                             1961.06  1974.12  2007.03  2014.34  2039.22
                             2048.71  2072.39  2102.96  2141.37  2152.60
                             2179.75  2183.16  2187.21  2193.84  2201.76
                             2210.71  2234.12  2246.01  2335.87  2345.06
                             2398.58  4230.72  4234.73  4270.09  4340.95
                             4403.85  4408.37  4417.47  4422.93  4425.19
                             4445.98  4474.85  4485.56  4493.41  4499.38
                             4507.56  4515.14  4552.71  4610.87  4642.12
                             4683.92  5100.72

 Zero-point correction=                           0.353319 (Hartree/Particle)
 Thermal correction to Energy=                    0.371205
 Thermal correction to Enthalpy=                  0.372149
 Thermal correction to Gibbs Free Energy=         0.306126
 Sum of electronic and zero-point Energies=           -898.565170
 Sum of electronic and thermal Energies=              -898.547284
 Sum of electronic and thermal Enthalpies=            -898.546340
 Sum of electronic and thermal Free Energies=         -898.612363

                     E (Thermal)             CV                S
                      KCal/Mol        Cal/Mol-Kelvin    Cal/Mol-Kelvin
 Total                  232.934             69.734            138.957
 Electronic               0.000              0.000              0.000
 Translational            0.889              2.981             42.735
 Rotational               0.889              2.981             33.937
 Vibrational            231.157             63.773             62.285
 Vibration     1          0.593              1.985              6.162
 Vibration     2          0.594              1.982              5.425
 Vibration     3          0.596              1.977              4.733
 Vibration     4          0.597              1.971              4.297
 Vibration     5          0.599              1.964              3.955
 Vibration     6          0.603              1.954              3.580
 Vibration     7          0.608              1.934              3.132
 Vibration     8          0.610              1.929              3.041
 Vibration     9          0.631              1.861              2.282
 Vibration    10          0.644              1.819              2.006
 Vibration    11          0.646              1.813              1.973
 Vibration    12          0.650              1.802              1.913
 Vibration    13          0.665              1.756              1.703
 Vibration    14          0.672              1.734              1.618
 Vibration    15          0.685              1.697              1.488
 Vibration    16          0.697              1.659              1.375
 Vibration    17          0.705              1.639              1.320
 Vibration    18          0.748              1.518              1.049
 Vibration    19          0.760              1.485              0.989
 Vibration    20          0.780              1.433              0.901
 Vibration    21          0.824              1.325              0.748
 Vibration    22          0.855              1.251              0.660
 Vibration    23          0.892              1.169              0.572
 Vibration    24          0.911              1.127              0.533
 Vibration    25          0.940              1.068              0.480
 Vibration    26          0.945              1.058              0.471

 Optimization completed.
    -- Stationary point found.
 Normal termination of Gaussian 16 at Mon Dec 14 18:23:31 2020.

 ----------------------------------------------------------------------
 # B3LYP/6-311++G(d,p) empiricaldispersion=gd3bj scf=xqc pop=npa geom=c
 heck
 ----------------------------------------------------------------------

 ---------------------------------------
 CID_63077291_JID_10351_Energie_neutraal
 ---------------------------------------
 Structure from the checkpoint file:  "JID_10351.chk"
 Charge =  0 Multiplicity = 1

 SCF Done:  E(RB3LYP) =  -899.164328770     A.U. after   19 cycles
 Normal termination of Gaussian 16 at Mon Dec 14 18:34:40 2020.

 ----------------------------------------------------------------------
 # B3LYP/6-311++G(d,p) empiricaldispersion=gd3bj scf=xqc pop=npa geom=c
 heck
 ----------------------------------------------------------------------

 -------------------------------------
 CID_63077291_JID_10351_Energie_kation
 -------------------------------------
 Structure from the checkpoint file:  "JID_10351.chk"
 Charge =  1 Multiplicity = 2

 SCF Done:  E(UB3LYP) =  -898.883810426     A.U. after   24 cycles
 Normal termination of Gaussian 16 at Mon Dec 14 18:53:43 2020.
 Gaussian 16:  ES64L-G16RevA.03 25-Dec-2016

 ----------------------------------------------------------------------
 # B3LYP/6-311++G(d,p) empiricaldispersion=gd3bj scf=xqc pop=npa geom=c
 heck
 ----------------------------------------------------------------------

 ------------------------------------
 CID_63077291_JID_10351_Energie_anion
 ------------------------------------
 Structure from the checkpoint file:  "JID_10351.chk"
 Charge = -1 Multiplicity = 2

                         Standard orientation:
 ---------------------------------------------------------------------
 Center     Atomic      Atomic             Coordinates (Angstroms)
 Number     Number       Type             X           Y           Z
 ---------------------------------------------------------------------
      1          6           0        1.580080    1.219473    1.427804
      2          6           0        1.716593    0.345874    0.208281
      3          6           0        0.609503    0.176933   -0.663133
      4          6           0        0.691603   -0.718503   -1.738091
      5          6           0        1.847106   -1.458304   -1.978250
      6          6           0        2.951671   -1.296279   -1.155670
      7          6           0        2.871523   -0.390612   -0.097299
      8          7           0        4.094886   -0.246161    0.709336
      9          8           0        4.870390   -1.202291    0.743325
     10          8           0        4.292773    0.825747    1.283248
     11          7           0       -0.568339    0.921482   -0.408385
     12          6           0       -0.526253    2.352040   -0.736958
     13          6           0       -1.916444    2.830790   -0.318247
     14          6           0       -2.829230    1.609247   -0.585065
     15          6           0       -1.876357    0.415508   -0.857606
     16          6           0       -2.234836   -0.890686   -0.132871
     17          6           0       -3.635898   -1.430847   -0.504131
     18          6           0       -4.197903   -1.946279    0.831399
     19          6           0       -3.611411   -0.951152    1.837643
     20          7           0       -2.250103   -0.759347    1.334474
     21          1           0        2.000293    2.217125    1.262487
     22          1           0        0.520188    1.320888    1.670808
     23          1           0        2.111765    0.800530    2.283388
     24          1           0       -0.159627   -0.836710   -2.398338
     25          1           0        1.887945   -2.148145   -2.815306
     26          1           0        3.870493   -1.846343   -1.310602
     27          1           0       -0.362643    2.500193   -1.819173
     28          1           0        0.285597    2.853815   -0.205747
     29          1           0       -1.912848    3.077697    0.748225
     30          1           0       -2.228339    3.724397   -0.865859
     31          1           0       -3.468969    1.407325    0.277153
     32          1           0       -3.485406    1.773627   -1.443838
     33          1           0       -1.875402    0.218304   -1.945003
     34          1           0       -1.473710   -1.634029   -0.407783
     35          1           0       -4.270458   -0.620980   -0.883234
     36          1           0       -3.591440   -2.200939   -1.280032
     37          1           0       -5.291175   -1.983542    0.853451
     38          1           0       -3.815695   -2.951097    1.042862
     39          1           0       -4.222523   -0.029594    1.847976
     40          1           0       -3.594559   -1.344107    2.861126
     41          1           0       -1.802379    0.098906    1.640051
 ---------------------------------------------------------------------

 SCF Done:  E(UB3LYP) =  -899.191481203     A.U. after   28 cycles

 The electronic state is 2-A.
 Alpha  occ. eigenvalues --  -18.93206 -18.93189 -14.30755 -14.20929 -14.19986
 Alpha  occ. eigenvalues --  -10.11136 -10.10912 -10.10306 -10.09991 -10.09225
 Alpha  occ. eigenvalues --  -10.08876 -10.08647 -10.08592 -10.07555 -10.05617
 Alpha  occ. eigenvalues --  -10.04535 -10.04008 -10.03195 -10.03036 -10.02739
 Alpha  occ. eigenvalues --   -1.01335  -0.85029  -0.84147  -0.82281  -0.73102
 Alpha  occ. eigenvalues --   -0.68920  -0.68231  -0.67186  -0.64235  -0.61693
 Alpha  occ. eigenvalues --   -0.61063  -0.56409  -0.53096  -0.51347  -0.51144
 Alpha  occ. eigenvalues --   -0.49997  -0.47782  -0.45419  -0.43784  -0.42089
 Alpha  occ. eigenvalues --   -0.40779  -0.39403  -0.38091  -0.36075  -0.35510
 Alpha  occ. eigenvalues --   -0.34592  -0.33952  -0.33194  -0.32901  -0.32364
 Alpha  occ. eigenvalues --   -0.31233  -0.30106  -0.29805  -0.29480  -0.29290
 Alpha  occ. eigenvalues --   -0.28410  -0.28111  -0.26822  -0.26368  -0.26024
 Alpha  occ. eigenvalues --   -0.25655  -0.25349  -0.24063  -0.23578  -0.22636
 Alpha  occ. eigenvalues --   -0.22349  -0.22002  -0.15086  -0.13058  -0.12508
 Alpha  occ. eigenvalues --   -0.12099  -0.11068  -0.09667  -0.08731   0.03781
 Alpha virt. eigenvalues --    0.05389   0.06672   0.07097   0.08016   0.08696
 Alpha virt. eigenvalues --    0.09058   0.09671   0.10030   0.11024   0.11203
 Alpha virt. eigenvalues --    0.11417   0.12048   0.12314   0.12901   0.13219

  Beta  occ. eigenvalues --  -18.92708 -18.92672 -14.30090 -14.20931 -14.19985
  Beta  occ. eigenvalues --  -10.11134 -10.10911 -10.10301 -10.09994 -10.09224
  Beta  occ. eigenvalues --  -10.08875 -10.08647 -10.08592 -10.07604 -10.05530
  Beta  occ. eigenvalues --  -10.04375 -10.04061 -10.03047 -10.02944 -10.02607
  Beta  occ. eigenvalues --   -1.00226  -0.85026  -0.83189  -0.82277  -0.72885
  Beta  occ. eigenvalues --   -0.68824  -0.68221  -0.67175  -0.63914  -0.61330
  Beta  occ. eigenvalues --   -0.61003  -0.56225  -0.52859  -0.51152  -0.50788
  Beta  occ. eigenvalues --   -0.49897  -0.47695  -0.45333  -0.43621  -0.42009
  Beta  occ. eigenvalues --   -0.40725  -0.39126  -0.37920  -0.35774  -0.35374
  Beta  occ. eigenvalues --   -0.34272  -0.33389  -0.32967  -0.32372  -0.31270
  Beta  occ. eigenvalues --   -0.30749  -0.29856  -0.29506  -0.29264  -0.29214
  Beta  occ. eigenvalues --   -0.28086  -0.27837  -0.26809  -0.26313  -0.25930
  Beta  occ. eigenvalues --   -0.25607  -0.25324  -0.24031  -0.23567  -0.22495
  Beta  occ. eigenvalues --   -0.22057  -0.21579  -0.14836  -0.12926  -0.11146
  Beta  occ. eigenvalues --   -0.10599  -0.09179  -0.09022  -0.08062
  Beta virt. eigenvalues --    0.05334   0.06618   0.07039   0.07962   0.08632
  Beta virt. eigenvalues --    0.09004   0.09614   0.09935   0.10651   0.10978
  Beta virt. eigenvalues --    0.11170   0.11425   0.12106   0.12451   0.12902

 Mulliken charges and spin densities:
               1          2
     1  C   -1.075331  -0.014957
     2  C    0.303518   0.099124
     3  C    0.252476  -0.024561
     4  C   -0.243183   0.198905
     5  C   -0.518155  -0.045926
     6  C    0.044249   0.160877
     7  C   -0.370007  -0.017448
     8  N   -0.330387   0.223420
     9  O   -0.175171   0.183965
    10  O   -0.167255   0.197140
    11  N    0.595681   0.006397
    12  C   -0.023173   0.003910
    13  C   -0.473731  -0.004411
    14  C   -0.518728  -0.013870
    15  C   -0.403183   0.041116
    16  C    0.428133  -0.031929
    17  C   -0.582813   0.007858
    18  C   -0.449737  -0.018957
    19  C   -0.250764  -0.025401
    20  N   -0.129908   0.001659
    21  H    0.199961   0.005984
    22  H    0.008345  -0.000219
    23  H    0.186302   0.004636
    24  H    0.060498  -0.017995
    25  H    0.125296   0.003035
    26  H    0.201114   0.004598
    27  H    0.121842  -0.001977
    28  H    0.150936   0.000080
    29  H    0.141514  -0.000086
    30  H    0.153245   0.000347
    31  H    0.108531   0.001771
    32  H    0.114558   0.008356
    33  H    0.169052  -0.003688
    34  H    0.275268  -0.005340
    35  H    0.147069   0.004209
    36  H    0.122680   0.024077
    37  H    0.119563   0.025566
    38  H    0.146017  -0.000817
    39  H    0.096391   0.007598
    40  H    0.151375   0.010385
    41  H    0.287909   0.002567
 Sum of Mulliken charges =  -1.00000   1.00000

 Dipole moment (field-independent basis, Debye):
    X=            -16.3644    Y=              2.2263    Z=             -3.0570  Tot=             16.7957
 Quadrupole moment (field-independent basis, Debye-Ang):
   XX=           -211.0253   YY=           -133.9184   ZZ=           -134.9239
   XY=              3.6991   XZ=            -14.3874   YZ=              1.3441

 Summary of Natural Population Analysis:

                                       Natural Population
                Natural  -----------------------------------------------
    Atom  No    Charge         Core      Valence    Rydberg      Total
 -----------------------------------------------------------------------
      C    1   -0.29758      0.99964     2.29247    0.00548     3.29758
      C    2   -0.00828      0.99950     1.99308    0.01570     3.00828
      C    3    0.13074      0.99945     1.85681    0.01300     2.86926
      C    4   -0.09704      0.99959     2.08148    0.01597     3.09704
      C    5   -0.12126      0.99957     2.11232    0.00936     3.12126
      C    6   -0.07542      0.99953     2.06619    0.00970     3.07542
      C    7    0.06187      0.99936     1.92426    0.01451     2.93813
      N    8    0.30745      0.99972     2.16377    0.02906     3.19255
      O    9   -0.19816      0.99990     3.19049    0.00777     4.19816
      O   10   -0.18965      0.99990     3.18171    0.00804     4.18965
      N   11   -0.29937      0.99968     2.77941    0.02029     3.79937
      C   12   -0.07872      0.99963     2.06977    0.00932     3.07872
      C   13   -0.19400      0.99964     2.18765    0.00671     3.19400
      C   14   -0.19677      0.99962     2.19002    0.00713     3.19677
      C   15   -0.00161      0.99958     1.98963    0.01240     3.00161
      C   16   -0.01485      0.99958     2.00084    0.01443     3.01485
      C   17   -0.19255      0.99963     2.18585    0.00707     3.19255
      C   18   -0.19447      0.99964     2.18743    0.00740     3.19447
      C   19   -0.08579      0.99965     2.07741    0.00872     3.08579
      N   20   -0.34781      0.99974     2.83593    0.01213     3.84781
      H   21    0.10623      0.00000     0.39253    0.00124     0.39377
      H   22    0.09240      0.00000     0.40592    0.00168     0.40760
      H   23    0.11491      0.00000     0.38374    0.00135     0.38509
      H   24    0.08845      0.00000     0.40961    0.00195     0.41155
      H   25    0.09138      0.00000     0.40755    0.00107     0.40862
      H   26    0.11175      0.00000     0.38698    0.00127     0.38825
      H   27    0.07908      0.00000     0.41939    0.00153     0.42092
      H   28    0.10328      0.00000     0.39530    0.00142     0.39672
      H   29    0.09616      0.00000     0.40271    0.00114     0.40384
      H   30    0.09522      0.00000     0.40375    0.00103     0.40478
      H   31    0.09839      0.00000     0.39985    0.00176     0.40161
      H   32    0.09577      0.00000     0.40329    0.00093     0.40423
      H   33    0.08449      0.00000     0.41412    0.00139     0.41551
      H   34    0.10409      0.00000     0.39470    0.00121     0.39591
      H   35    0.09362      0.00000     0.40498    0.00140     0.40638
      H   36    0.10052      0.00000     0.39786    0.00162     0.39948
      H   37    0.09478      0.00000     0.40367    0.00155     0.40522
      H   38    0.09776      0.00000     0.40111    0.00113     0.40224
      H   39    0.07161      0.00000     0.42564    0.00276     0.42839
      H   40    0.09090      0.00000     0.40786    0.00123     0.40910
      H   41    0.18444      0.00000     0.31323    0.00233     0.31556
 =======================================================================
   * Total *    0.00196     19.99255    53.74033    0.26517    73.99804

 Normal termination of Gaussian 16 at Mon Dec 14 19:15:35 2020.
