 Gaussian 16, Revision A.03,

 -----------------------------------------------------------
 # opt freq B3LYP/6-31G(d) empiricaldispersion=gd3bj scf=xqc
 -----------------------------------------------------------

 ------------------------------
 CID_61261785_JID_1427_neutraal
 ------------------------------
 Symbolic Z-matrix:
 Charge =  0 Multiplicity = 1

 SCF Done:  E(RB3LYP) =  -494.192087111     A.U. after   14 cycles
 SCF Done:  E(RB3LYP) =  -494.199239591     A.U. after   12 cycles
 SCF Done:  E(RB3LYP) =  -494.201496749     A.U. after   11 cycles
 SCF Done:  E(RB3LYP) =  -494.202802340     A.U. after   12 cycles
 SCF Done:  E(RB3LYP) =  -494.203280938     A.U. after   11 cycles
 SCF Done:  E(RB3LYP) =  -494.203547785     A.U. after   11 cycles
 SCF Done:  E(RB3LYP) =  -494.203645140     A.U. after   11 cycles
 SCF Done:  E(RB3LYP) =  -494.203729003     A.U. after   11 cycles
 SCF Done:  E(RB3LYP) =  -494.203832895     A.U. after   11 cycles
 SCF Done:  E(RB3LYP) =  -494.203879332     A.U. after   11 cycles
 SCF Done:  E(RB3LYP) =  -494.203913348     A.U. after    9 cycles
 SCF Done:  E(RB3LYP) =  -494.203917420     A.U. after    9 cycles
 SCF Done:  E(RB3LYP) =  -494.203919589     A.U. after    8 cycles
 SCF Done:  E(RB3LYP) =  -494.203920366     A.U. after    8 cycles
 SCF Done:  E(RB3LYP) =  -494.203920541     A.U. after    7 cycles
 SCF Done:  E(RB3LYP) =  -494.203920601     A.U. after    7 cycles
 Optimization completed.
    -- Stationary point found.

 1\1\GINC-NODE201\FOpt\RB3LYP\6-31G(d)\C7H14N4\VSC10255\08-Dec-2020\0\\
 # opt freq B3LYP/6-31G(d) empiricaldispersion=gd3bj scf=xqc\\CID_61261
 785_JID_1427_neutraal\\0,1\C,0.9549623713,-0.1012800298,0.0245706143\C
 ,0.4915105798,-0.3965320879,1.4540499555\C,0.8899490607,0.7235810697,2
 .4211612306\C,-1.0308260606,-0.6208180565,1.5187673436\N,-1.4942485195
 ,-1.7422240062,0.7322743857\C,-1.5236083454,-3.0501268693,1.097684432\
 C,-2.0094808164,-3.7689430024,0.0159392963\C,-2.2397749215,-2.78452375
 96,-0.9796026392\N,-1.9285803461,-1.5605062454,-0.5624256346\N,-2.6679

 Normal termination of Gaussian 16 at Tue Dec  8 20:00:36 2020.

 --------------------------------------------------------------------
 #N Geom=AllCheck Guess=TCheck SCRF=Check GenChk RB3LYP/6-31G(d) Freq
 --------------------------------------------------------------------

 Structure from the checkpoint file:  "JID_1427.chk"
 ------------------------------
 CID_61261785_JID_1427_neutraal
 ------------------------------
 Charge =  0 Multiplicity = 1

 SCF Done:  E(RB3LYP) =  -494.203920601     A.U. after    1 cycles

  Exact polarizability: 125.925   6.257 101.334  -6.621   6.657  66.692
 Approx polarizability: 166.168   9.286 154.546 -14.858  15.304 101.228

                      1                      2                      3
                      A                      A                      A
 Frequencies --     44.5258                64.3639                75.9163
 Red. masses --      2.7341                 4.2185                 3.0474
 Frc consts  --      0.0032                 0.0103                 0.0103
 IR Inten    --      0.6639                 1.4305                 2.2575

                      4                      5                      6
                      A                      A                      A
 Frequencies --    189.7081               211.8085               221.3259
 Red. masses --      1.2801                 2.4963                 1.1018
 Frc consts  --      0.0271                 0.0660                 0.0318
 IR Inten    --     31.5776                20.2045                 3.7674

                      7                      8                      9
                      A                      A                      A
 Frequencies --    237.5002               246.3302               254.2829
 Red. masses --      1.2923                 2.1407                 1.2149
 Frc consts  --      0.0429                 0.0765                 0.0463
 IR Inten    --      1.5275                 7.1471                47.1160

                     10                     11                     12
                      A                      A                      A
 Frequencies --    284.8392               306.6430               338.5300
 Red. masses --      2.5076                 2.3100                 3.0029
 Frc consts  --      0.1199                 0.1280                 0.2028
 IR Inten    --      2.8083                 1.8370                 0.8523

                     13                     14                     15
                      A                      A                      A
 Frequencies --    372.1275               426.1344               437.7312
 Red. masses --      3.7429                 1.8401                 3.3126
 Frc consts  --      0.3054                 0.1969                 0.3740
 IR Inten    --      2.4015                 0.5569                 1.9619

                     16                     17                     18
                      A                      A                      A
 Frequencies --    521.8340               622.8687               630.4107
 Red. masses --      2.7237                 5.8333                 4.6529
 Frc consts  --      0.4370                 1.3334                 1.0895
 IR Inten    --      5.0287                 3.5645                15.3452

                     19                     20                     21
                      A                      A                      A
 Frequencies --    679.3535               695.6322               725.4637
 Red. masses --      2.0868                 1.5063                 4.8306
 Frc consts  --      0.5675                 0.4295                 1.4979
 IR Inten    --     70.6232                66.0696                27.4684

                     22                     23                     24
                      A                      A                      A
 Frequencies --    794.3995               806.2259               828.7392
 Red. masses --      1.5727                 1.7423                 2.6796
 Frc consts  --      0.5847                 0.6672                 1.0843
 IR Inten    --    245.0238               184.6086                12.0311

                     25                     26                     27
                      A                      A                      A
 Frequencies --    850.0252               918.5022               944.5413
 Red. masses --      2.6608                 1.6271                 1.2018
 Frc consts  --      1.1327                 0.8087                 0.6317
 IR Inten    --      7.3778                 1.4430                 2.7653

                     28                     29                     30
                      A                      A                      A
 Frequencies --    961.6375               983.5193              1027.7828
 Red. masses --      1.9102                 1.5157                 2.9710
 Frc consts  --      1.0408                 0.8639                 1.8491
 IR Inten    --      7.6372                 0.7631                 8.6521

                     31                     32                     33
                      A                      A                      A
 Frequencies --   1093.4885              1121.9182              1156.0498
 Red. masses --      2.1087                 1.5865                 2.0599
 Frc consts  --      1.4856                 1.1765                 1.6220
 IR Inten    --     16.4001                 2.5476                 3.3384

                     34                     35                     36
                      A                      A                      A
 Frequencies --   1162.3667              1210.4989              1215.2240
 Red. masses --      1.6803                 1.7919                 1.9341
 Frc consts  --      1.3376                 1.5470                 1.6828
 IR Inten    --      8.0675                 4.4231                 5.1930

                     37                     38                     39
                      A                      A                      A
 Frequencies --   1236.0625              1297.8943              1342.4854
 Red. masses --      2.0123                 2.4100                 1.3460
 Frc consts  --      1.8115                 2.3919                 1.4292
 IR Inten    --      0.0045                 8.4627                14.4022

                     40                     41                     42
                      A                      A                      A
 Frequencies --   1348.4490              1396.3076              1415.1901
 Red. masses --      1.8846                 1.3550                 1.4486
 Frc consts  --      2.0190                 1.5565                 1.7094
 IR Inten    --     19.4765                 2.3376                10.5173

                     43                     44                     45
                      A                      A                      A
 Frequencies --   1432.2997              1453.3020              1473.8124
 Red. masses --      1.2675                 1.2435                 3.5453
 Frc consts  --      1.5320                 1.5474                 4.5372
 IR Inten    --      3.3741                 7.6488                38.3689

                     46                     47                     48
                      A                      A                      A
 Frequencies --   1501.0953              1516.4653              1523.4251
 Red. masses --      1.1455                 1.0525                 1.0572
 Frc consts  --      1.5208                 1.4260                 1.4455
 IR Inten    --      5.3265                 3.5881                 4.2419

                     49                     50                     51
                      A                      A                      A
 Frequencies --   1534.4600              1538.0649              1546.6322
 Red. masses --      1.0502                 1.0583                 4.6837
 Frc consts  --      1.4569                 1.4750                 6.6011
 IR Inten    --      9.6004                14.2867                76.0676

                     52                     53                     54
                      A                      A                      A
 Frequencies --   1584.2243              1620.3859              1681.3794
 Red. masses --      5.5846                 3.3408                 1.2321
 Frc consts  --      8.2580                 5.1682                 2.0523
 IR Inten    --     81.3266               141.0882                76.2177

                     55                     56                     57
                      A                      A                      A
 Frequencies --   1693.4802              2994.0787              3039.8992
 Red. masses --      1.2691                 1.0826                 1.0360
 Frc consts  --      2.1443                 5.7182                 5.6406
 IR Inten    --    108.4004                36.3626                23.7248

                     58                     59                     60
                      A                      A                      A
 Frequencies --   3047.9874              3061.8279              3102.2808
 Red. masses --      1.0386                 1.0612                 1.1020
 Frc consts  --      5.6847                 5.8616                 6.2489
 IR Inten    --     27.9090                35.2786                21.6162

                     61                     62                     63
                      A                      A                      A
 Frequencies --   3107.5938              3116.2015              3121.5348
 Red. masses --      1.1022                 1.1017                 1.1029
 Frc consts  --      6.2714                 6.3033                 6.3319
 IR Inten    --     25.0108                44.2104                24.5774

                     64                     65                     66
                      A                      A                      A
 Frequencies --   3144.9688              3266.7449              3510.2678
 Red. masses --      1.0997                 1.0969                 1.0516
 Frc consts  --      6.4083                 6.8970                 7.6342
 IR Inten    --     16.1448                 4.0689                 2.7275

                     67                     68                     69
                      A                      A                      A
 Frequencies --   3517.5227              3614.2370              3615.0973
 Red. masses --      1.0482                 1.0925                 1.0958
 Frc consts  --      7.6410                 8.4081                 8.4379
 IR Inten    --      4.1727                11.9541                 6.8188

 - Thermochemistry -
 -------------------
 Temperature   298.150 Kelvin.  Pressure   1.00000 Atm.
 Atom     1 has atomic number  6 and mass  12.00000

 Molecular mass:   154.12185 amu.
 Principal axes and moments of inertia in atomic units:
                           1         2         3
     Eigenvalues --   967.854192507.694983164.10353
           X            0.99996  -0.00854  -0.00009
           Y            0.00854   0.99995   0.00545
           Z            0.00004  -0.00545   0.99999
 This molecule is an asymmetric top.
 Rotational symmetry number  1.
 Warning -- assumption of classical behavior for rotation
           may cause significant error
 Rotational temperatures (Kelvin)      0.08949     0.03454     0.02737
 Rotational constants (GHZ):           1.86468     0.71968     0.57038
 Zero-point vibrational energy     574553.9 (Joules/Mol)
                                  137.32167 (Kcal/Mol)
 Warning -- explicit consideration of  16 degrees of freedom as
           vibrations may cause significant error
 Vibrational temperatures:     64.06    92.61   109.23   272.95   304.75
          (Kelvin)            318.44   341.71   354.41   365.86   409.82
                              441.19   487.07   535.41   613.11   629.80
                              750.80   896.17   907.02   977.44  1000.86
                             1043.78  1142.96  1159.98  1192.37  1223.00
                             1321.52  1358.98  1383.58  1415.06  1478.75
                             1573.29  1614.19  1663.30  1672.39  1741.64
                             1748.44  1778.42  1867.38  1931.54  1940.12
                             2008.98  2036.14  2060.76  2090.98  2120.49
                             2159.74  2181.86  2191.87  2207.75  2212.93
                             2225.26  2279.35  2331.37  2419.13  2436.54
                             4307.81  4373.74  4385.37  4405.29  4463.49
                             4471.13  4483.52  4491.19  4524.91  4700.12
                             5050.49  5060.93  5200.08  5201.32

 Zero-point correction=                           0.218836 (Hartree/Particle)
 Thermal correction to Energy=                    0.230924
 Thermal correction to Enthalpy=                  0.231868
 Thermal correction to Gibbs Free Energy=         0.180852
 Sum of electronic and zero-point Energies=           -493.985085
 Sum of electronic and thermal Energies=              -493.972997
 Sum of electronic and thermal Enthalpies=            -493.972052
 Sum of electronic and thermal Free Energies=         -494.023068

                     E (Thermal)             CV                S
                      KCal/Mol        Cal/Mol-Kelvin    Cal/Mol-Kelvin
 Total                  144.907             45.221            107.372
 Electronic               0.000              0.000              0.000
 Translational            0.889              2.981             41.007
 Rotational               0.889              2.981             30.419
 Vibrational            143.130             39.259             35.945
 Vibration     1          0.595              1.980              5.047
 Vibration     2          0.597              1.971              4.319
 Vibration     3          0.599              1.965              3.994
 Vibration     4          0.633              1.854              2.231
 Vibration     5          0.643              1.823              2.028
 Vibration     6          0.648              1.809              1.948
 Vibration     7          0.656              1.783              1.822
 Vibration     8          0.661              1.769              1.757
 Vibration     9          0.665              1.756              1.701
 Vibration    10          0.683              1.702              1.504
 Vibration    11          0.697              1.661              1.380
 Vibration    12          0.719              1.599              1.219
 Vibration    13          0.744              1.529              1.071
 Vibration    14          0.788              1.413              0.871
 Vibration    15          0.798              1.388              0.834
 Vibration    16          0.877              1.202              0.606

                           ! Non-Optimized Parameters !

 1\1\GINC-NODE201\Freq\RB3LYP\6-31G(d)\C7H14N4\VSC10255\08-Dec-2020\0\\
 #N Geom=AllCheck Guess=TCheck SCRF=Check GenChk RB3LYP/6-31G(d) Freq\\
 CID_61261785_JID_1427_neutraal\\0,1\C,0.9549623713,-0.1012800298,0.024
 5706143\C,0.4915105798,-0.3965320879,1.4540499555\C,0.8899490607,0.723
 5810697,2.4211612306\C,-1.0308260606,-0.6208180565,1.5187673436\N,-1.4
 942485195,-1.7422240062,0.7322743857\C,-1.5236083454,-3.0501268693,1.0
 97684432\C,-2.0094808164,-3.7689430024,0.0159392963\C,-2.2397749215,-2
 .7845237596,-0.9796026392\N,-1.9285803461,-1.5605062454,-0.5624256346\

 Normal termination of Gaussian 16 at Tue Dec  8 20:05:31 2020.

 ----------------------------------------------------------------------
 # B3LYP/6-311++G(d,p) empiricaldispersion=gd3bj scf=xqc pop=npa geom=c
 heck
 ----------------------------------------------------------------------

 --------------------------------------
 CID_61261785_JID_1427_Energie_neutraal
 --------------------------------------
 Structure from the checkpoint file:  "JID_1427.chk"
 Charge =  0 Multiplicity = 1

 SCF Done:  E(RB3LYP) =  -494.355642054     A.U. after   14 cycles
 Normal termination of Gaussian 16 at Tue Dec  8 20:07:36 2020.

 ----------------------------------------------------------------------
 # B3LYP/6-311++G(d,p) empiricaldispersion=gd3bj scf=xqc pop=npa geom=c
 heck
 ----------------------------------------------------------------------

 ------------------------------------
 CID_61261785_JID_1427_Energie_kation
 ------------------------------------
 Structure from the checkpoint file:  "JID_1427.chk"
 Charge =  1 Multiplicity = 2

 SCF Done:  E(UB3LYP) =  -494.082963206     A.U. after   20 cycles
 Normal termination of Gaussian 16 at Tue Dec  8 20:11:53 2020.
 Gaussian 16:  ES64L-G16RevA.03 25-Dec-2016

 -----------------------------------
 CID_61261785_JID_1427_Energie_anion
 -----------------------------------
 Structure from the checkpoint file:  "JID_1427.chk"
 Charge = -1 Multiplicity = 2

                         Standard orientation:
 ---------------------------------------------------------------------
 Center     Atomic      Atomic             Coordinates (Angstroms)
 Number     Number       Type             X           Y           Z
 ---------------------------------------------------------------------
      1          6           0        1.872249   -1.552021    0.909730
      2          6           0        2.156985   -0.184690    0.281475
      3          6           0        3.596481   -0.087802   -0.235414
      4          6           0        1.173109    0.127017   -0.861691
      5          7           0       -0.211247    0.182485   -0.447732
      6          6           0       -0.869398    1.241501    0.091081
      7          6           0       -2.163688    0.825808    0.364857
      8          6           0       -2.185605   -0.532743   -0.043896
      9          7           0       -1.014412   -0.933769   -0.530296
     10          7           0       -3.248835   -1.434219    0.087113
     11          7           0       -0.248380    2.492055    0.208937
     12          1           0        2.037597   -2.351750    0.177089
     13          1           0        0.834985   -1.627672    1.246236
     14          1           0        2.535539   -1.733210    1.763272
     15          1           0        2.019037    0.584422    1.058420
     16          1           0        3.775333   -0.830024   -1.023637
     17          1           0        3.811286    0.903025   -0.653680
     18          1           0        4.315756   -0.278795    0.568378
     19          1           0        1.421095    1.091205   -1.321126
     20          1           0        1.238494   -0.644899   -1.634286
     21          1           0       -2.956248    1.402151    0.819712
     22          1           0       -3.070423   -2.278212   -0.448613
     23          1           0       -4.138616   -1.031453   -0.187530
     24          1           0        0.622256    2.457172    0.732318
     25          1           0       -0.866769    3.169760    0.640444
 ---------------------------------------------------------------------

 SCF Done:  E(UB3LYP) =  -494.343470955     A.U. after   31 cycles

 The electronic state is 2-A.
 Alpha  occ. eigenvalues --  -14.26119 -14.21248 -14.21041 -14.19946 -10.12797
 Alpha  occ. eigenvalues --  -10.11166 -10.10196 -10.07491 -10.06039 -10.05289
 Alpha  occ. eigenvalues --  -10.04204  -0.93101  -0.81617  -0.79494  -0.72933
 Alpha  occ. eigenvalues --   -0.67753  -0.64895  -0.58449  -0.57448  -0.49701
 Alpha  occ. eigenvalues --   -0.47626  -0.45893  -0.42018  -0.39764  -0.38597
 Alpha  occ. eigenvalues --   -0.37441  -0.35590  -0.34133  -0.33025  -0.31649
 Alpha  occ. eigenvalues --   -0.30424  -0.29151  -0.28630  -0.27698  -0.24903
 Alpha  occ. eigenvalues --   -0.23824  -0.23015  -0.22380  -0.19221  -0.18082
 Alpha  occ. eigenvalues --   -0.11189  -0.09605   0.04570
 Alpha virt. eigenvalues --    0.06491   0.07147   0.08941   0.09100   0.09442
 Alpha virt. eigenvalues --    0.10870   0.11209   0.11600   0.11767   0.13051
 Alpha virt. eigenvalues --    0.13679   0.14151   0.14597   0.15140   0.15701

  Beta  occ. eigenvalues --  -14.26117 -14.21230 -14.20957 -14.19939 -10.12792
  Beta  occ. eigenvalues --  -10.11164 -10.10185 -10.07466 -10.06008 -10.05278
  Beta  occ. eigenvalues --  -10.04183  -0.93091  -0.81567  -0.79401  -0.72904
  Beta  occ. eigenvalues --   -0.67716  -0.64843  -0.58405  -0.57410  -0.49654
  Beta  occ. eigenvalues --   -0.47575  -0.45822  -0.41950  -0.39710  -0.38508
  Beta  occ. eigenvalues --   -0.37395  -0.35555  -0.34107  -0.32972  -0.31616
  Beta  occ. eigenvalues --   -0.30393  -0.29121  -0.28603  -0.27674  -0.24875
  Beta  occ. eigenvalues --   -0.23786  -0.22956  -0.22339  -0.19182  -0.18059
  Beta  occ. eigenvalues --   -0.11159  -0.09575
  Beta virt. eigenvalues --    0.06830   0.07284   0.08461   0.09246   0.09709
  Beta virt. eigenvalues --    0.09949   0.11266   0.11640   0.12040   0.12240
  Beta virt. eigenvalues --    0.13069   0.13744   0.14341   0.14698   0.15370

 Mulliken charges and spin densities:
               1          2
     1  C    0.093569  -0.668586
     2  C   -0.876441   1.501574
     3  C    0.603472  -1.235600
     4  C    0.329752  -1.228561
     5  N    0.250365   0.017529
     6  C    1.176633  -1.679916
     7  C   -0.532370   1.039699
     8  C    0.851023  -1.323981
     9  N   -0.222113   0.012451
    10  N   -0.394042   0.058852
    11  N   -0.417793   0.092721
    12  H    0.085225   0.035471
    13  H    0.157028   0.024361
    14  H   -0.105986   0.238887
    15  H   -0.330259   0.486504
    16  H    0.031060   0.083375
    17  H   -0.259916   0.399954
    18  H   -0.320137   0.467958
    19  H    0.143907   0.064007
    20  H    0.102383   0.065609
    21  H   -0.760464   0.936563
    22  H    0.172488   0.064190
    23  H    0.023055   0.215578
    24  H   -0.262436   0.515220
    25  H   -0.538001   0.816142
 Sum of Mulliken charges =  -1.00000   1.00000

 Dipole moment (field-independent basis, Debye):
    X=             -0.6184    Y=             -6.0340    Z=             -3.6246  Tot=              7.0661
 Quadrupole moment (field-independent basis, Debye-Ang):
   XX=           -123.7441   YY=           -117.4562   ZZ=            -96.7010
   XY=             -0.7444   XZ=             -0.3547   YZ=             -5.2331

 Summary of Natural Population Analysis:

                                       Natural Population
                Natural  -----------------------------------------------
    Atom  No    Charge         Core      Valence    Rydberg      Total
 -----------------------------------------------------------------------
      C    1   -0.28627      0.99965     2.28021    0.00642     3.28627
      C    2   -0.11888      0.99961     2.10966    0.00961     3.11888
      C    3   -0.28471      0.99965     2.27848    0.00659     3.28471
      C    4   -0.08309      0.99959     2.07134    0.01216     3.08309
      N    5   -0.13060      0.99961     2.61751    0.01348     3.63060
      C    6    0.19252      0.99951     1.79421    0.01376     2.80748
      C    7   -0.20440      0.99946     2.19521    0.00973     3.20440
      C    8    0.16833      0.99959     1.81663    0.01545     2.83167
      N    9   -0.20079      0.99969     2.69035    0.01075     3.70079
      N   10   -0.40686      0.99972     2.89705    0.01010     3.90686
      N   11   -0.40495      0.99972     2.89490    0.01033     3.90495
      H   12    0.09361      0.00000     0.40554    0.00085     0.40639
      H   13    0.10994      0.00000     0.38899    0.00107     0.39006
      H   14    0.09680      0.00000     0.40245    0.00075     0.40320
      H   15    0.09560      0.00000     0.40101    0.00338     0.40440
      H   16    0.09278      0.00000     0.40631    0.00091     0.40722
      H   17    0.10167      0.00000     0.39711    0.00122     0.39833
      H   18    0.10179      0.00000     0.39715    0.00105     0.39821
      H   19    0.10561      0.00000     0.39303    0.00136     0.39439
      H   20    0.10178      0.00000     0.39670    0.00153     0.39822
      H   21    0.10870      0.00000     0.39013    0.00117     0.39130
      H   22    0.18346      0.00000     0.31483    0.00171     0.31654
      H   23    0.18196      0.00000     0.31635    0.00169     0.31804
      H   24    0.19285      0.00000     0.29902    0.00813     0.30715
      H   25    0.19316      0.00000     0.29870    0.00815     0.30684
 =======================================================================
   * Total *    0.00000     10.99580    30.85287    0.15133    42.00000

 Normal termination of Gaussian 16 at Tue Dec  8 20:19:12 2020.
