 Gaussian 16, Revision A.03,

 -----------------------------------------------------------
 # opt freq B3LYP/6-31G(d) empiricaldispersion=gd3bj scf=xqc
 -----------------------------------------------------------

 ------------------------------
 CID_79098317_JID_2583_neutraal
 ------------------------------
 Symbolic Z-matrix:
 Charge =  0 Multiplicity = 1

 SCF Done:  E(RB3LYP) =  -537.325169341     A.U. after   14 cycles
 SCF Done:  E(RB3LYP) =  -537.329235607     A.U. after   11 cycles
 SCF Done:  E(RB3LYP) =  -537.330223857     A.U. after   11 cycles
 SCF Done:  E(RB3LYP) =  -537.330570830     A.U. after   11 cycles
 SCF Done:  E(RB3LYP) =  -537.330690157     A.U. after   11 cycles
 SCF Done:  E(RB3LYP) =  -537.330743822     A.U. after   10 cycles
 SCF Done:  E(RB3LYP) =  -537.330756024     A.U. after   10 cycles
 SCF Done:  E(RB3LYP) =  -537.330758707     A.U. after    8 cycles
 SCF Done:  E(RB3LYP) =  -537.330759916     A.U. after    8 cycles
 SCF Done:  E(RB3LYP) =  -537.330760174     A.U. after    8 cycles
 SCF Done:  E(RB3LYP) =  -537.330760212     A.U. after    7 cycles
 SCF Done:  E(RB3LYP) =  -537.330760217     A.U. after    7 cycles
 SCF Done:  E(RB3LYP) =  -537.330760211     A.U. after    7 cycles
 Optimization completed.
    -- Stationary point found.
 Normal termination of Gaussian 16 at Wed Dec  9 17:39:44 2020.

 --------------------------------------------------------------------
 #N Geom=AllCheck Guess=TCheck SCRF=Check GenChk RB3LYP/6-31G(d) Freq
 --------------------------------------------------------------------

 Structure from the checkpoint file:  "JID_2583.chk"
 ------------------------------
 CID_79098317_JID_2583_neutraal
 ------------------------------
 Charge =  0 Multiplicity = 1

 SCF Done:  E(RB3LYP) =  -537.330760211     A.U. after    1 cycles

  Exact polarizability: 135.963  -9.548  93.041   0.514   8.230  97.605
 Approx polarizability: 177.183 -18.580 132.313   2.655  20.927 157.517

                      1                      2                      3
                      A                      A                      A
 Frequencies --     25.6036                41.2425                85.7172
 Red. masses --      3.5017                 5.3206                 2.9218
 Frc consts  --      0.0014                 0.0053                 0.0126
 IR Inten    --      0.3208                 1.0875                 0.6707

                      4                      5                      6
                      A                      A                      A
 Frequencies --     98.1680               126.9112               149.5978
 Red. masses --      4.6923                 2.1788                 2.3129
 Frc consts  --      0.0266                 0.0207                 0.0305
 IR Inten    --      0.6113                 4.4250                 0.1026

                      7                      8                      9
                      A                      A                      A
 Frequencies --    188.2872               237.0945               245.8118
 Red. masses --      2.8261                 1.0712                 2.0995
 Frc consts  --      0.0590                 0.0355                 0.0747
 IR Inten    --      2.1583                 0.2724                 2.6972

                     10                     11                     12
                      A                      A                      A
 Frequencies --    271.3350               284.3013               365.8117
 Red. masses --      1.5515                 3.4045                 3.0052
 Frc consts  --      0.0673                 0.1621                 0.2369
 IR Inten    --      1.8055                 3.5076                 1.2816

                     13                     14                     15
                      A                      A                      A
 Frequencies --    379.9573               421.0684               461.3235
 Red. masses --      2.3819                 1.1739                 3.2592
 Frc consts  --      0.2026                 0.1226                 0.4087
 IR Inten    --      7.2956               155.7216                14.7189

                     16                     17                     18
                      A                      A                      A
 Frequencies --    490.1150               517.1956               634.9976
 Red. masses --      2.8221                 2.8168                 3.7082
 Frc consts  --      0.3994                 0.4439                 0.8810
 IR Inten    --      9.5176                 2.8124                 7.5031

                     19                     20                     21
                      A                      A                      A
 Frequencies --    645.7120               678.9010               687.8540
 Red. masses --      2.7274                 1.3263                 2.8316
 Frc consts  --      0.6700                 0.3602                 0.7894
 IR Inten    --     14.1446                 2.8756                10.0726

                     22                     23                     24
                      A                      A                      A
 Frequencies --    697.6954               778.4331               801.3714
 Red. masses --      1.9937                 1.4322                 2.1362
 Frc consts  --      0.5718                 0.5113                 0.8083
 IR Inten    --     20.9359                24.0261               129.8740

                     25                     26                     27
                      A                      A                      A
 Frequencies --    823.8899               887.3937               903.9330
 Red. masses --      1.2874                 2.3933                 1.4500
 Frc consts  --      0.5149                 1.1104                 0.6980
 IR Inten    --      5.5665                 8.2574                10.9702

                     28                     29                     30
                      A                      A                      A
 Frequencies --    938.0167               980.6142              1023.0710
 Red. masses --      1.9494                 3.1318                 1.6103
 Frc consts  --      1.0106                 1.7743                 0.9930
 IR Inten    --      6.9050                 9.4668                 3.8230

                     31                     32                     33
                      A                      A                      A
 Frequencies --   1034.5310              1074.9438              1083.3306
 Red. masses --      2.7175                 1.5874                 2.0406
 Frc consts  --      1.7136                 1.0807                 1.4110
 IR Inten    --      5.9138                 6.7747                46.6053

                     34                     35                     36
                      A                      A                      A
 Frequencies --   1091.6921              1097.4232              1114.3158
 Red. masses --      2.5793                 2.0211                 1.5174
 Frc consts  --      1.8112                 1.4341                 1.1101
 IR Inten    --     15.9303                10.2298                36.9964

                     37                     38                     39
                      A                      A                      A
 Frequencies --   1150.3650              1172.3871              1184.7505
 Red. masses --      3.4516                 1.4418                 1.5329
 Frc consts  --      2.6912                 1.1676                 1.2677
 IR Inten    --     37.7900                14.9931                41.5839

                     40                     41                     42
                      A                      A                      A
 Frequencies --   1218.9368              1239.2939              1247.4786
 Red. masses --      1.2917                 1.8087                 1.4692
 Frc consts  --      1.1308                 1.6367                 1.3470
 IR Inten    --      6.4544                21.7186                10.8966

                     43                     44                     45
                      A                      A                      A
 Frequencies --   1280.7731              1350.9237              1361.8187
 Red. masses --      1.5816                 1.5437                 1.3606
 Frc consts  --      1.5286                 1.6599                 1.4867
 IR Inten    --     13.1788                26.2130                 8.0979

                     46                     47                     48
                      A                      A                      A
 Frequencies --   1379.7598              1399.7085              1409.9775
 Red. masses --      3.8625                 1.4753                 1.3013
 Frc consts  --      4.3324                 1.7030                 1.5242
 IR Inten    --     10.6750                27.4026                 0.0786

                     49                     50                     51
                      A                      A                      A
 Frequencies --   1431.3631              1433.8752              1443.8242
 Red. masses --      1.3417                 1.5836                 2.5437
 Frc consts  --      1.6196                 1.9183                 3.1243
 IR Inten    --     14.9126                15.7562                17.4239

                     52                     53                     54
                      A                      A                      A
 Frequencies --   1446.5320              1478.8009              1499.9835
 Red. masses --      1.8966                 1.1785                 1.1719
 Frc consts  --      2.3382                 1.5185                 1.5535
 IR Inten    --     22.2444                 1.1013                20.8121

                     55                     56                     57
                      A                      A                      A
 Frequencies --   1501.9598              1516.1847              1523.9908
 Red. masses --      1.1720                 1.0493                 1.0599
 Frc consts  --      1.5577                 1.4212                 1.4504
 IR Inten    --      3.8895                 3.2676                10.4749

                     58                     59                     60
                      A                      A                      A
 Frequencies --   1527.7421              1529.4910              1546.2069
 Red. masses --      1.0999                 1.0804                 2.4092
 Frc consts  --      1.5126                 1.4892                 3.3935
 IR Inten    --      0.5051                 0.4886                34.9564

                     61                     62                     63
                      A                      A                      A
 Frequencies --   1550.3179              1605.8602              2987.7458
 Red. masses --      1.1076                 4.9830                 1.0528
 Frc consts  --      1.5684                 7.5710                 5.5370
 IR Inten    --     16.9418                 7.5009                59.4162

                     64                     65                     66
                      A                      A                      A
 Frequencies --   3007.6400              3029.2954              3049.7759
 Red. masses --      1.0699                 1.0840                 1.0379
 Frc consts  --      5.7020                 5.8609                 5.6878
 IR Inten    --     43.9595                21.5127                24.5697

                     67                     68                     69
                      A                      A                      A
 Frequencies --   3070.6744              3071.4803              3104.6350
 Red. masses --      1.0813                 1.0607                 1.0943
 Frc consts  --      6.0070                 5.8958                 6.2147
 IR Inten    --     50.1474                28.1227                56.8745

                     70                     71                     72
                      A                      A                      A
 Frequencies --   3115.1200              3115.3937              3124.3030
 Red. masses --      1.0988                 1.1008                 1.1071
 Frc consts  --      6.2821                 6.2946                 6.3670
 IR Inten    --     15.8768                56.0894                20.5649

                     73                     74                     75
                      A                      A                      A
 Frequencies --   3139.6519              3246.2402              3259.1822
 Red. masses --      1.1039                 1.0908                 1.0956
 Frc consts  --      6.4112                 6.7727                 6.8567
 IR Inten    --     31.6728                 4.2759                 1.5196

                     76                     77                     78
                      A                      A                      A
 Frequencies --   3275.3882              3469.9826              3707.7842
 Red. masses --      1.1013                 1.0734                 1.0658
 Frc consts  --      6.9613                 7.6152                 8.6327
 IR Inten    --      1.0191                 1.6645                32.3621

 - Thermochemistry -
 -------------------
 Temperature   298.150 Kelvin.  Pressure   1.00000 Atm.
 Atom     1 has atomic number  6 and mass  12.00000

 Molecular mass:   168.12626 amu.
 Principal axes and moments of inertia in atomic units:
                           1         2         3
     Eigenvalues --   924.636443908.283224212.55286
           X            0.99997  -0.00730  -0.00340
           Y            0.00733   0.99992   0.01001
           Z            0.00333  -0.01003   0.99994
 This molecule is an asymmetric top.
 Rotational symmetry number  1.
 Warning -- assumption of classical behavior for rotation
           may cause significant error
 Rotational temperatures (Kelvin)      0.09367     0.02216     0.02056
 Rotational constants (GHZ):           1.95184     0.46177     0.42842
 Zero-point vibrational energy     649418.3 (Joules/Mol)
                                  155.21470 (Kcal/Mol)
 Warning -- explicit consideration of  17 degrees of freedom as
           vibrations may cause significant error
 Vibrational temperatures:     36.84    59.34   123.33   141.24   182.60
          (Kelvin)            215.24   270.90   341.13   353.67   390.39
                              409.05   526.32   546.67   605.82   663.74
                              705.17   744.13   913.62   929.04   976.79
                              989.67  1003.83  1119.99  1152.99  1185.39
                             1276.76  1300.56  1349.60  1410.89  1471.97
                             1488.46  1546.60  1558.67  1570.70  1578.95
                             1603.25  1655.12  1686.80  1704.59  1753.78
                             1783.07  1794.84  1842.75  1943.68  1959.35
                             1985.17  2013.87  2028.64  2059.41  2063.03
                             2077.34  2081.24  2127.66  2158.14  2160.99
                             2181.45  2192.68  2198.08  2200.60  2224.65
                             2230.56  2310.47  4298.70  4327.32  4358.48
                             4387.95  4418.02  4419.18  4466.88  4481.96
                             4482.36  4495.18  4517.26  4670.62  4689.24
                             4712.55  4992.53  5334.67

 Zero-point correction=                           0.247350 (Hartree/Particle)
 Thermal correction to Energy=                    0.260366
 Thermal correction to Enthalpy=                  0.261310
 Thermal correction to Gibbs Free Energy=         0.206895
 Sum of electronic and zero-point Energies=           -537.083410
 Sum of electronic and thermal Energies=              -537.070395
 Sum of electronic and thermal Enthalpies=            -537.069450
 Sum of electronic and thermal Free Energies=         -537.123865

                     E (Thermal)             CV                S
                      KCal/Mol        Cal/Mol-Kelvin    Cal/Mol-Kelvin
 Total                  163.382             48.200            114.525
 Electronic               0.000              0.000              0.000
 Translational            0.889              2.981             41.267
 Rotational               0.889              2.981             31.099
 Vibrational            161.604             42.238             42.159
 Vibration     1          0.593              1.985              6.144
 Vibration     2          0.594              1.981              5.198
 Vibration     3          0.601              1.959              3.756
 Vibration     4          0.604              1.950              3.490
 Vibration     5          0.611              1.926              2.992
 Vibration     6          0.618              1.903              2.677
 Vibration     7          0.633              1.856              2.245
 Vibration     8          0.656              1.784              1.825
 Vibration     9          0.660              1.770              1.760
 Vibration    10          0.675              1.726              1.588
 Vibration    11          0.683              1.703              1.508
 Vibration    12          0.739              1.543              1.097
 Vibration    13          0.750              1.513              1.039
 Vibration    14          0.784              1.424              0.888
 Vibration    15          0.819              1.336              0.762
 Vibration    16          0.846              1.272              0.683
 Vibration    17          0.872              1.212              0.616

 Optimization completed.
    -- Stationary point found.
 Normal termination of Gaussian 16 at Wed Dec  9 17:46:46 2020.

 ----------------------------------------------------------------------
 # B3LYP/6-311++G(d,p) empiricaldispersion=gd3bj scf=xqc pop=npa geom=c
 heck
 ----------------------------------------------------------------------

 --------------------------------------
 CID_79098317_JID_2583_Energie_neutraal
 --------------------------------------
 Structure from the checkpoint file:  "JID_2583.chk"
 Charge =  0 Multiplicity = 1

 SCF Done:  E(RB3LYP) =  -537.494611015     A.U. after   16 cycles
 Normal termination of Gaussian 16 at Wed Dec  9 17:50:55 2020.

 ----------------------------------------------------------------------
 # B3LYP/6-311++G(d,p) empiricaldispersion=gd3bj scf=xqc pop=npa geom=c
 heck
 ----------------------------------------------------------------------

 ------------------------------------
 CID_79098317_JID_2583_Energie_kation
 ------------------------------------
 Structure from the checkpoint file:  "JID_2583.chk"
 Charge =  1 Multiplicity = 2

 SCF Done:  E(UB3LYP) =  -537.206835717     A.U. after   26 cycles
 Normal termination of Gaussian 16 at Wed Dec  9 17:59:12 2020.
 Gaussian 16:  ES64L-G16RevA.03 25-Dec-2016

 ----------------------------------------------------------------------
 # B3LYP/6-311++G(d,p) empiricaldispersion=gd3bj scf=xqc pop=npa geom=c
 heck
 ----------------------------------------------------------------------

 -----------------------------------
 CID_79098317_JID_2583_Energie_anion
 -----------------------------------
 Structure from the checkpoint file:  "JID_2583.chk"
 Charge = -1 Multiplicity = 2

                         Standard orientation:
 ---------------------------------------------------------------------
 Center     Atomic      Atomic             Coordinates (Angstroms)
 Number     Number       Type             X           Y           Z
 ---------------------------------------------------------------------
      1          6           0       -2.505250    1.968804   -0.553644
      2          6           0       -2.181198    0.471957   -0.578260
      3          6           0       -0.798456    0.188513   -0.036888
      4          6           0        0.194093   -0.545135   -0.656334
      5          7           0        1.279420   -0.636230    0.188984
      6          6           0        0.993033    0.054439    1.350080
      7          6           0       -0.283082    0.565626    1.243291
      8          6           0        2.593962   -1.136846   -0.176186
      9          6           0        3.461304   -0.032800   -0.792423
     10          8           0        3.676794    1.037689    0.107642
     11          7           0       -3.262643   -0.252705    0.113235
     12          6           0       -3.124638   -1.704394    0.060781
     13          1           0       -2.495210    2.351577    0.474623
     14          1           0       -3.500309    2.145876   -0.972250
     15          1           0       -1.764063    2.537138   -1.124411
     16          1           0       -2.209830    0.129888   -1.622298
     17          1           0        0.214985   -1.010535   -1.632254
     18          1           0        1.715722    0.096116    2.152461
     19          1           0       -0.799442    1.132703    2.006728
     20          1           0        3.077854   -1.523419    0.726021
     21          1           0        2.470165   -1.966489   -0.880589
     22          1           0        4.448772   -0.438725   -1.035603
     23          1           0        2.994880    0.312645   -1.728608
     24          1           0        2.805367    1.416901    0.312380
     25          1           0       -3.264593    0.042061    1.089716
     26          1           0       -2.168481   -2.089172    0.453654
     27          1           0       -3.944386   -2.163190    0.623301
     28          1           0       -3.211837   -2.033331   -0.982049
 ---------------------------------------------------------------------

 SCF Done:  E(UB3LYP) =  -537.479633726     A.U. after   33 cycles
 SCF Done:  E(UB3LYP) =  -537.479633726     a.u. after    1 cycles

 The electronic state is 2-A.
 Alpha  occ. eigenvalues --  -19.02783 -14.26187 -14.19925 -10.11987 -10.11082
 Alpha  occ. eigenvalues --  -10.10456 -10.09259 -10.08710 -10.08405 -10.06409
 Alpha  occ. eigenvalues --  -10.06038 -10.05900  -0.93268  -0.88525  -0.80836
 Alpha  occ. eigenvalues --   -0.71412  -0.66289  -0.62468  -0.61983  -0.56060
 Alpha  occ. eigenvalues --   -0.54388  -0.51758  -0.45886  -0.45794  -0.42559
 Alpha  occ. eigenvalues --   -0.42044  -0.38056  -0.36415  -0.35968  -0.34573
 Alpha  occ. eigenvalues --   -0.33701  -0.32654  -0.31729  -0.31100  -0.29161
 Alpha  occ. eigenvalues --   -0.28900  -0.28693  -0.28027  -0.26087  -0.25608
 Alpha  occ. eigenvalues --   -0.24407  -0.24049  -0.18863  -0.14562  -0.12733
 Alpha  occ. eigenvalues --   -0.11897   0.04599
 Alpha virt. eigenvalues --    0.06498   0.07311   0.07483   0.08720   0.08851
 Alpha virt. eigenvalues --    0.09121   0.10122   0.10625   0.11269   0.11561
 Alpha virt. eigenvalues --    0.11931   0.12212   0.12723   0.13252   0.13709

  Beta  occ. eigenvalues --  -19.02773 -14.26191 -14.19916 -10.11955 -10.11042
  Beta  occ. eigenvalues --  -10.10450 -10.09245 -10.08683 -10.08386 -10.06397
  Beta  occ. eigenvalues --  -10.06039 -10.05886  -0.93247  -0.88515  -0.80821
  Beta  occ. eigenvalues --   -0.71382  -0.66263  -0.62430  -0.61940  -0.56017
  Beta  occ. eigenvalues --   -0.54325  -0.51716  -0.45845  -0.45750  -0.42511
  Beta  occ. eigenvalues --   -0.42004  -0.38001  -0.36359  -0.35947  -0.34541
  Beta  occ. eigenvalues --   -0.33659  -0.32632  -0.31692  -0.31068  -0.29133
  Beta  occ. eigenvalues --   -0.28866  -0.28653  -0.27991  -0.26068  -0.25587
  Beta  occ. eigenvalues --   -0.24378  -0.24020  -0.18830  -0.14545  -0.12712
  Beta  occ. eigenvalues --   -0.11867
  Beta virt. eigenvalues --    0.06628   0.07701   0.07796   0.07975   0.09063
  Beta virt. eigenvalues --    0.09338   0.09932   0.10444   0.11025   0.11658
  Beta virt. eigenvalues --    0.11933   0.12184   0.12559   0.12921   0.13612

 Mulliken charges and spin densities:
               1          2
     1  C    0.166706  -0.749144
     2  C   -0.030892  -1.252111
     3  C    2.710624  -2.116546
     4  C   -1.667508   1.460410
     5  N    0.159662   0.103023
     6  C    0.398152  -1.006006
     7  C   -0.929167   1.148919
     8  C   -0.287464   0.205825
     9  C    1.463358  -1.862296
    10  O   -0.332042   0.050623
    11  N   -0.035756   0.072309
    12  C    0.192461  -0.582423
    13  H    0.014154   0.129896
    14  H    0.109899   0.036757
    15  H    0.016193   0.118014
    16  H    0.003178   0.166152
    17  H   -0.704103   0.891658
    18  H   -0.172846   0.337948
    19  H   -0.482511   0.628906
    20  H   -0.271265   0.455203
    21  H   -0.818471   0.983579
    22  H   -0.538871   0.720239
    23  H   -0.164606   0.331395
    24  H    0.215176   0.052590
    25  H    0.174417   0.057678
    26  H    0.095777   0.071048
    27  H   -0.165494   0.293097
    28  H   -0.118759   0.253257
 Sum of Mulliken charges =  -1.00000   1.00000

 Dipole moment (field-independent basis, Debye):
    X=             -4.1266    Y=              3.4724    Z=              2.5280  Tot=              5.9563
 Quadrupole moment (field-independent basis, Debye-Ang):
   XX=           -152.4853   YY=           -115.5273   ZZ=           -111.1208
   XY=              5.0700   XZ=              5.7154   YZ=             -7.2002

 Summary of Natural Population Analysis:

                                       Natural Population
                Natural  -----------------------------------------------
    Atom  No    Charge         Core      Valence    Rydberg      Total
 -----------------------------------------------------------------------
      C    1   -0.28055      0.99965     2.27576    0.00514     3.28055
      C    2   -0.01678      0.99956     2.00477    0.01244     3.01678
      C    3   -0.06693      0.99951     2.05555    0.01187     3.06693
      C    4   -0.01058      0.99947     1.99740    0.01371     3.01058
      N    5   -0.20824      0.99966     2.69554    0.01303     3.70824
      C    6   -0.02686      0.99955     2.01431    0.01299     3.02686
      C    7   -0.14655      0.99951     2.13756    0.00948     3.14655
      C    8   -0.09411      0.99960     2.08190    0.01261     3.09411
      C    9   -0.01222      0.99961     2.00025    0.01237     3.01222
      O   10   -0.36922      0.99990     3.36226    0.00706     4.36922
      N   11   -0.33690      0.99975     2.82540    0.01174     3.83690
      C   12   -0.17925      0.99966     2.17248    0.00711     3.17925
      H   13    0.09439      0.00000     0.40440    0.00121     0.40561
      H   14    0.09994      0.00000     0.39883    0.00123     0.40006
      H   15    0.10131      0.00000     0.39770    0.00100     0.39869
      H   16    0.09384      0.00000     0.40426    0.00189     0.40616
      H   17    0.10539      0.00000     0.39217    0.00243     0.39461
      H   18    0.10377      0.00000     0.39509    0.00114     0.39623
      H   19    0.10351      0.00000     0.39530    0.00119     0.39649
      H   20    0.10116      0.00000     0.39703    0.00181     0.39884
      H   21    0.10944      0.00000     0.38534    0.00522     0.39056
      H   22    0.09088      0.00000     0.40694    0.00217     0.40912
      H   23    0.07896      0.00000     0.41925    0.00178     0.42104
      H   24    0.23129      0.00000     0.26522    0.00350     0.26871
      H   25    0.16664      0.00000     0.32996    0.00340     0.33336
      H   26    0.08682      0.00000     0.41126    0.00192     0.41318
      H   27    0.09082      0.00000     0.40812    0.00106     0.40918
      H   28    0.09002      0.00000     0.40833    0.00165     0.40998
 =======================================================================
   * Total *    0.00000     11.99544    33.84240    0.16216    46.00000

 Normal termination of Gaussian 16 at Wed Dec  9 18:10:00 2020.
