 Gaussian 16, Revision A.03,

 -----------------------------------------------------------
 # opt freq B3LYP/6-31G(d) empiricaldispersion=gd3bj scf=xqc
 -----------------------------------------------------------

 ------------------------------
 CID_79675937_JID_3299_neutraal
 ------------------------------
 Symbolic Z-matrix:
 Charge =  0 Multiplicity = 1

 SCF Done:  E(RB3LYP) =  -647.204445599     A.U. after   15 cycles
 SCF Done:  E(RB3LYP) =  -647.208750546     A.U. after   13 cycles
 SCF Done:  E(RB3LYP) =  -647.211090094     A.U. after   13 cycles
 SCF Done:  E(RB3LYP) =  -647.212438154     A.U. after   13 cycles
 SCF Done:  E(RB3LYP) =  -647.212982705     A.U. after   12 cycles
 SCF Done:  E(RB3LYP) =  -647.213374335     A.U. after   12 cycles
 SCF Done:  E(RB3LYP) =  -647.213802058     A.U. after   13 cycles
 SCF Done:  E(RB3LYP) =  -647.214427773     A.U. after   12 cycles
 SCF Done:  E(RB3LYP) =  -647.214939646     A.U. after   12 cycles
 SCF Done:  E(RB3LYP) =  -647.214873197     A.U. after   12 cycles
 SCF Done:  E(RB3LYP) =  -647.215137271     A.U. after   10 cycles
 SCF Done:  E(RB3LYP) =  -647.215142639     A.U. after   10 cycles
 SCF Done:  E(RB3LYP) =  -647.215149790     A.U. after   10 cycles
 SCF Done:  E(RB3LYP) =  -647.215150801     A.U. after    8 cycles
 SCF Done:  E(RB3LYP) =  -647.215151068     A.U. after    8 cycles
 Optimization completed.
    -- Stationary point found.
 Normal termination of Gaussian 16 at Wed Dec  9 22:51:12 2020.

 --------------------------------------------------------------------
 #N Geom=AllCheck Guess=TCheck SCRF=Check GenChk RB3LYP/6-31G(d) Freq
 --------------------------------------------------------------------

 Structure from the checkpoint file:  "JID_3299.chk"
 ------------------------------
 CID_79675937_JID_3299_neutraal
 ------------------------------
 Charge =  0 Multiplicity = 1

 SCF Done:  E(RB3LYP) =  -647.215151068     A.U. after    1 cycles

  Exact polarizability: 142.475  -8.007 110.400 -13.864  -4.579  67.112
 Approx polarizability: 181.046 -14.600 189.123 -26.425 -15.028 106.383

                      1                      2                      3
                      A                      A                      A
 Frequencies --     33.5370                58.9233                68.9793
 Red. masses --      4.5573                 4.8087                 3.2837
 Frc consts  --      0.0030                 0.0098                 0.0092
 IR Inten    --      1.0414                 1.0182                 2.4725

                      4                      5                      6
                      A                      A                      A
 Frequencies --     96.7772               115.5690               161.8515
 Red. masses --      3.0244                 3.1821                 4.1689
 Frc consts  --      0.0167                 0.0250                 0.0643
 IR Inten    --      2.4902                 1.0863                 7.5752

                      7                      8                      9
                      A                      A                      A
 Frequencies --    183.0203               191.4235               239.4320
 Red. masses --      3.0082                 6.0482                 1.7831
 Frc consts  --      0.0594                 0.1306                 0.0602
 IR Inten    --      0.8992                 0.5072                 6.9154

                     10                     11                     12
                      A                      A                      A
 Frequencies --    255.9362               284.5936               379.6760
 Red. masses --      2.7133                 2.9363                 3.7183
 Frc consts  --      0.1047                 0.1401                 0.3158
 IR Inten    --     12.5481                14.4550                 6.9949

                     13                     14                     15
                      A                      A                      A
 Frequencies --    422.1806               482.0036               555.3124
 Red. masses --      4.8138                 4.4253                 3.6239
 Frc consts  --      0.5055                 0.6058                 0.6584
 IR Inten    --      2.9421                 0.6080                10.9787

                     16                     17                     18
                      A                      A                      A
 Frequencies --    573.2192               580.4269               625.7247
 Red. masses --      2.1271                 2.2979                 4.5738
 Frc consts  --      0.4118                 0.4561                 1.0551
 IR Inten    --     19.0800                50.1637                 4.1080

                     19                     20                     21
                      A                      A                      A
 Frequencies --    642.5225               663.1197               731.9431
 Red. masses --      5.8619                 1.5657                 2.2257
 Frc consts  --      1.4258                 0.4057                 0.7025
 IR Inten    --      6.1685                14.2548                76.7850

                     22                     23                     24
                      A                      A                      A
 Frequencies --    743.1380               774.3009               830.7430
 Red. masses --      1.2711                 3.0030                 1.2571
 Frc consts  --      0.4136                 1.0608                 0.5112
 IR Inten    --     50.8768               145.0069                16.9567

                     25                     26                     27
                      A                      A                      A
 Frequencies --    858.2983               896.5137               909.2452
 Red. masses --      2.5821                 1.3121                 5.5384
 Frc consts  --      1.1207                 0.6213                 2.6977
 IR Inten    --     21.3803                 3.9665                 2.6982

                     28                     29                     30
                      A                      A                      A
 Frequencies --    910.5022               969.1478              1022.7063
 Red. masses --      2.6922                 3.0423                 2.5459
 Frc consts  --      1.3150                 1.6836                 1.5689
 IR Inten    --     15.5757                 3.4718                 7.9768

                     31                     32                     33
                      A                      A                      A
 Frequencies --   1059.7204              1069.5901              1098.9667
 Red. masses --      2.9719                 1.3149                 2.0038
 Frc consts  --      1.9664                 0.8863                 1.4259
 IR Inten    --    105.4829                34.9529                26.3250

                     34                     35                     36
                      A                      A                      A
 Frequencies --   1116.8130              1140.6333              1145.2269
 Red. masses --      2.4451                 2.0895                 1.3362
 Frc consts  --      1.7968                 1.6017                 1.0325
 IR Inten    --    105.7870                14.7188                38.7350

                     37                     38                     39
                      A                      A                      A
 Frequencies --   1168.7672              1196.5213              1235.5775
 Red. masses --      4.5992                 1.3336                 4.5957
 Frc consts  --      3.7016                 1.1249                 4.1338
 IR Inten    --    113.3797                 5.5987                13.2817

                     40                     41                     42
                      A                      A                      A
 Frequencies --   1238.3573              1280.8679              1285.9233
 Red. masses --      1.7405                 1.1402                 1.4659
 Frc consts  --      1.5726                 1.1021                 1.4282
 IR Inten    --     25.3543                 6.8816                 5.7231

                     43                     44                     45
                      A                      A                      A
 Frequencies --   1322.4985              1391.8488              1410.9516
 Red. masses --      1.1558                 1.8847                 2.1012
 Frc consts  --      1.1910                 2.1511                 2.4646
 IR Inten    --      6.7885               108.4973                 8.7279

                     46                     47                     48
                      A                      A                      A
 Frequencies --   1443.1364              1460.0928              1461.2798
 Red. masses --      1.4444                 4.8451                 1.3542
 Frc consts  --      1.7724                 6.0857                 1.7037
 IR Inten    --      6.7813                87.9506                83.1406

                     49                     50                     51
                      A                      A                      A
 Frequencies --   1474.1187              1497.1421              1500.4576
 Red. masses --      3.5393                 1.5508                 1.4855
 Frc consts  --      4.5315                 2.0480                 1.9705
 IR Inten    --    150.4024                 9.1324                11.3547

                     52                     53                     54
                      A                      A                      A
 Frequencies --   1504.2687              1516.3187              1527.4253
 Red. masses --      1.3404                 1.0477                 1.0673
 Frc consts  --      1.7871                 1.4193                 1.4671
 IR Inten    --      5.8616                 6.5659                12.7415

                     55                     56                     57
                      A                      A                      A
 Frequencies --   1548.4685              1600.7304              1732.6112
 Red. masses --      1.0916                 3.9965                 8.6855
 Frc consts  --      1.5422                 6.0334                15.3620
 IR Inten    --      1.0473                32.6169               275.8136

                     58                     59                     60
                      A                      A                      A
 Frequencies --   2983.6649              3005.4539              3025.1661
 Red. masses --      1.0570                 1.0383                 1.1015
 Frc consts  --      5.5440                 5.5257                 5.9392
 IR Inten    --     39.0029                83.2824                43.2943

                     61                     62                     63
                      A                      A                      A
 Frequencies --   3054.1965              3067.0510              3125.3572
 Red. masses --      1.1058                 1.0609                 1.1072
 Frc consts  --      6.0773                 5.8799                 6.3719
 IR Inten    --     54.2523                25.6005                19.9574

                     64                     65                     66
                      A                      A                      A
 Frequencies --   3151.7237              3258.8185              3281.9936
 Red. masses --      1.0980                 1.0908                 1.1009
 Frc consts  --      6.4263                 6.8250                 6.9867
 IR Inten    --     20.5154                 5.8635                 4.1193

                     67                     68                     69
                      A                      A                      A
 Frequencies --   3304.9572              3521.0982              3641.9907
 Red. masses --      1.0977                 1.0767                 1.0802
 Frc consts  --      7.0639                 7.8651                 8.4421
 IR Inten    --      0.4870               151.0239                87.1322

 - Thermochemistry -
 -------------------
 Temperature   298.150 Kelvin.  Pressure   1.00000 Atm.
 Atom     1 has atomic number  6 and mass  12.00000

 Molecular mass:   184.08479 amu.
 Principal axes and moments of inertia in atomic units:
                           1         2         3
     Eigenvalues --   989.034364412.359255013.19026
           X            1.00000  -0.00231   0.00112
           Y            0.00231   1.00000   0.00158
           Z           -0.00112  -0.00157   1.00000
 This molecule is an asymmetric top.
 Rotational symmetry number  1.
 Warning -- assumption of classical behavior for rotation
           may cause significant error
 Rotational temperatures (Kelvin)      0.08757     0.01963     0.01728
 Rotational constants (GHZ):           1.82475     0.40902     0.36000
 Zero-point vibrational energy     538980.8 (Joules/Mol)
                                  128.81950 (Kcal/Mol)
 Warning -- explicit consideration of  17 degrees of freedom as
           vibrations may cause significant error
 Vibrational temperatures:     48.25    84.78    99.25   139.24   166.28
          (Kelvin)            232.87   263.33   275.42   344.49   368.24
                              409.47   546.27   607.42   693.50   798.97
                              824.73   835.10   900.28   924.45   954.08
                             1053.10  1069.21  1114.05  1195.25  1234.90
                             1289.88  1308.20  1310.01  1394.39  1471.45
                             1524.70  1538.90  1581.17  1606.84  1641.12
                             1647.73  1681.60  1721.53  1777.72  1781.72
                             1842.88  1850.16  1902.78  2002.56  2030.04
                             2076.35  2100.75  2102.46  2120.93  2154.05
                             2158.82  2164.31  2181.64  2197.62  2227.90
                             2303.09  2492.84  4292.83  4324.18  4352.54
                             4394.31  4412.80  4496.69  4534.63  4688.71
                             4722.06  4755.10  5066.07  5240.01

 Zero-point correction=                           0.205287 (Hartree/Particle)
 Thermal correction to Energy=                    0.218021
 Thermal correction to Enthalpy=                  0.218965
 Thermal correction to Gibbs Free Energy=         0.164899
 Sum of electronic and zero-point Energies=           -647.009864
 Sum of electronic and thermal Energies=              -646.997130
 Sum of electronic and thermal Enthalpies=            -646.996186
 Sum of electronic and thermal Free Energies=         -647.050252

                     E (Thermal)             CV                S
                      KCal/Mol        Cal/Mol-Kelvin    Cal/Mol-Kelvin
 Total                  136.810             46.546            113.792
 Electronic               0.000              0.000              0.000
 Translational            0.889              2.981             41.537
 Rotational               0.889              2.981             31.459
 Vibrational            135.033             40.584             40.796
 Vibration     1          0.594              1.983              5.608
 Vibration     2          0.596              1.974              4.493
 Vibration     3          0.598              1.969              4.182
 Vibration     4          0.603              1.951              3.518
 Vibration     5          0.608              1.936              3.173
 Vibration     6          0.622              1.889              2.528
 Vibration     7          0.631              1.863              2.297
 Vibration     8          0.634              1.852              2.214
 Vibration     9          0.657              1.780              1.807
 Vibration    10          0.666              1.753              1.689
 Vibration    11          0.683              1.702              1.506
 Vibration    12          0.750              1.513              1.040
 Vibration    13          0.785              1.422              0.885
 Vibration    14          0.838              1.290              0.705
 Vibration    15          0.911              1.128              0.533
 Vibration    16          0.929              1.089              0.498
 Vibration    17          0.937              1.074              0.485

                           ! Non-Optimized Parameters !
 Normal termination of Gaussian 16 at Wed Dec  9 22:56:49 2020.

 ----------------------------------------------------------------------
 # B3LYP/6-311++G(d,p) empiricaldispersion=gd3bj scf=xqc pop=npa geom=c
 heck
 ----------------------------------------------------------------------

 --------------------------------------
 CID_79675937_JID_3299_Energie_neutraal
 --------------------------------------
 Structure from the checkpoint file:  "JID_3299.chk"
 Charge =  0 Multiplicity = 1

 SCF Done:  E(RB3LYP) =  -647.409760442     A.U. after   15 cycles
 Normal termination of Gaussian 16 at Wed Dec  9 22:59:18 2020.

 ----------------------------------------------------------------------
 # B3LYP/6-311++G(d,p) empiricaldispersion=gd3bj scf=xqc pop=npa geom=c
 heck
 ----------------------------------------------------------------------

 ------------------------------------
 CID_79675937_JID_3299_Energie_kation
 ------------------------------------
 Structure from the checkpoint file:  "JID_3299.chk"
 Charge =  1 Multiplicity = 2

 SCF Done:  E(UB3LYP) =  -647.106986391     A.U. after   29 cycles
 Normal termination of Gaussian 16 at Wed Dec  9 23:05:56 2020.
 Gaussian 16:  ES64L-G16RevA.03 25-Dec-2016

 ----------------------------------------------------------------------
 # B3LYP/6-311++G(d,p) empiricaldispersion=gd3bj scf=xqc pop=npa geom=c
 heck
 ----------------------------------------------------------------------

 -----------------------------------
 CID_79675937_JID_3299_Energie_anion
 -----------------------------------
 Structure from the checkpoint file:  "JID_3299.chk"
 Charge = -1 Multiplicity = 2

                         Standard orientation:
 ---------------------------------------------------------------------
 Center     Atomic      Atomic             Coordinates (Angstroms)
 Number     Number       Type             X           Y           Z
 ---------------------------------------------------------------------
      1          6           0       -4.396805    0.618043   -0.342816
      2          8           0       -3.018788    0.297533   -0.372016
      3          6           0       -2.777052   -1.100066   -0.367745
      4          6           0       -1.279588   -1.342193   -0.325823
      5          8           0       -0.703637   -0.933387    0.924472
      6          7           0       -0.537634    0.461870    0.994314
      7          6           0        0.567974    1.035701    0.388266
      8          8           0        0.553971    2.241488    0.129426
      9          6           0        1.756805    0.220213    0.138712
     10          6           0        2.161788   -1.095094    0.354875
     11          6           0        3.484004   -1.216307   -0.133845
     12          6           0        3.856531    0.022837   -0.637084
     13          7           0        2.809587    0.873529   -0.467150
     14          1           0       -4.472824    1.707371   -0.353092
     15          1           0       -4.881786    0.228135    0.564944
     16          1           0       -4.918394    0.210966   -1.222232
     17          1           0       -3.248599   -1.568717    0.510653
     18          1           0       -3.202822   -1.566885   -1.272505
     19          1           0       -1.081632   -2.416850   -0.389973
     20          1           0       -0.773449   -0.836627   -1.156509
     21          1           0       -1.413701    0.949389    0.814722
     22          1           0        1.566867   -1.859322    0.828662
     23          1           0        4.100434   -2.104607   -0.120962
     24          1           0        4.778224    0.350024   -1.096124
     25          1           0        2.749695    1.855446   -0.700032
 ---------------------------------------------------------------------

 SCF Done:  E(UB3LYP) =  -647.398348240     A.U. after   33 cycles
 SCF Done:  E(UB3LYP) =  -647.398348240     a.u. after    1 cycles

 The electronic state is 2-A.
 Alpha  occ. eigenvalues --  -19.05836 -19.03363 -18.97162 -14.25426 -14.24976
 Alpha  occ. eigenvalues --  -10.15110 -10.11873 -10.11769 -10.11216 -10.09623
 Alpha  occ. eigenvalues --  -10.08799 -10.05991 -10.05521  -0.98669  -0.94403
 Alpha  occ. eigenvalues --   -0.91724  -0.87411  -0.74364  -0.67392  -0.65499
 Alpha  occ. eigenvalues --   -0.63658  -0.57797  -0.52497  -0.51349  -0.48777
 Alpha  occ. eigenvalues --   -0.47338  -0.43466  -0.42300  -0.40312  -0.37580
 Alpha  occ. eigenvalues --   -0.36431  -0.35218  -0.34664  -0.32901  -0.32061
 Alpha  occ. eigenvalues --   -0.31751  -0.30813  -0.29557  -0.28529  -0.28383
 Alpha  occ. eigenvalues --   -0.27547  -0.25081  -0.23990  -0.18708  -0.17294
 Alpha  occ. eigenvalues --   -0.15947  -0.15168  -0.13872  -0.12094   0.04700
 Alpha virt. eigenvalues --    0.06274   0.06733   0.07678   0.08773   0.09248
 Alpha virt. eigenvalues --    0.09949   0.11039   0.11409   0.12003   0.12498
 Alpha virt. eigenvalues --    0.13209   0.13840   0.14255   0.14715   0.15798

  Beta  occ. eigenvalues --  -19.05826 -19.03347 -18.97031 -14.25391 -14.24873
  Beta  occ. eigenvalues --  -10.14945 -10.11851 -10.11731 -10.11168 -10.09544
  Beta  occ. eigenvalues --  -10.08786 -10.06026 -10.05437  -0.98607  -0.94374
  Beta  occ. eigenvalues --   -0.91481  -0.87248  -0.74262  -0.67272  -0.65430
  Beta  occ. eigenvalues --   -0.63478  -0.57699  -0.52262  -0.51176  -0.48730
  Beta  occ. eigenvalues --   -0.47242  -0.43379  -0.42227  -0.40219  -0.37520
  Beta  occ. eigenvalues --   -0.36361  -0.35027  -0.34543  -0.32821  -0.31762
  Beta  occ. eigenvalues --   -0.31551  -0.30716  -0.29493  -0.28448  -0.28307
  Beta  occ. eigenvalues --   -0.27102  -0.24920  -0.23836  -0.18650  -0.17219
  Beta  occ. eigenvalues --   -0.15676  -0.14796  -0.13600  -0.11610
  Beta virt. eigenvalues --    0.06696   0.07491   0.08046   0.08361   0.09080
  Beta virt. eigenvalues --    0.10063   0.10281   0.11477   0.11741   0.12292
  Beta virt. eigenvalues --    0.12641   0.13475   0.14079   0.14390   0.14876

 Mulliken charges and spin densities:
               1          2
     1  C    0.847788  -1.122307
     2  O   -0.299621   0.110987
     3  C    0.853747  -1.277130
     4  C   -0.131572   0.041237
     5  O    0.034196   0.021530
     6  N   -0.314550   0.001604
     7  C   -0.233587  -0.197987
     8  O   -0.416525   0.051727
     9  C   -0.294097  -0.108465
    10  C    0.440559   0.428571
    11  C   -0.400966  -0.307383
    12  C   -0.054110   0.146566
    13  N   -0.079701   0.056337
    14  H   -0.130375   0.270018
    15  H   -0.348362   0.487001
    16  H   -0.531351   0.669548
    17  H   -0.049956   0.210867
    18  H   -0.406479   0.568058
    19  H   -0.515078   0.697017
    20  H    0.180371  -0.018618
    21  H    0.393878  -0.033151
    22  H    0.163845   0.039781
    23  H    0.012002   0.121441
    24  H    0.003957   0.129992
    25  H    0.275987   0.012758
 Sum of Mulliken charges =  -1.00000   1.00000

 Dipole moment (field-independent basis, Debye):
    X=              6.9724    Y=              1.1997    Z=              0.7058  Tot=              7.1100
 Quadrupole moment (field-independent basis, Debye-Ang):
   XX=           -150.3994   YY=           -112.2407   ZZ=           -102.4699
   XY=             -5.1418   XZ=            -11.6183   YZ=             -4.9773

 Summary of Natural Population Analysis:

                                       Natural Population
                Natural  -----------------------------------------------
    Atom  No    Charge         Core      Valence    Rydberg      Total
 -----------------------------------------------------------------------
      C    1   -0.09537      0.99962     2.08692    0.00883     3.09537
      O    2   -0.30625      0.99988     3.29585    0.01052     4.30625
      C    3   -0.02258      0.99958     2.01045    0.01255     3.02258
      C    4   -0.02523      0.99958     2.01129    0.01436     3.02523
      O    5   -0.21878      0.99990     3.20920    0.00968     4.21878
      N    6   -0.16194      0.99964     2.64817    0.01413     3.66194
      C    7    0.33053      0.99961     1.64940    0.02046     2.66947
      O    8   -0.32144      0.99988     3.31607    0.00548     4.32144
      C    9    0.01347      0.99952     1.97489    0.01212     2.98653
      C   10   -0.10579      0.99954     2.09816    0.00809     3.10579
      C   11   -0.16370      0.99958     2.15406    0.01005     3.16370
      C   12   -0.00262      0.99961     1.99043    0.01258     3.00262
      N   13   -0.24202      0.99966     2.73423    0.00812     3.74202
      H   14    0.09020      0.00000     0.40866    0.00115     0.40980
      H   15    0.08028      0.00000     0.41784    0.00188     0.41972
      H   16    0.08287      0.00000     0.41462    0.00250     0.41713
      H   17    0.08375      0.00000     0.41430    0.00196     0.41625
      H   18    0.08692      0.00000     0.41013    0.00295     0.41308
      H   19    0.09764      0.00000     0.40073    0.00164     0.40236
      H   20    0.09054      0.00000     0.40774    0.00172     0.40946
      H   21    0.19374      0.00000     0.30270    0.00356     0.30626
      H   22    0.11208      0.00000     0.38682    0.00110     0.38792
      H   23    0.10124      0.00000     0.39803    0.00072     0.39876
      H   24    0.09457      0.00000     0.40463    0.00080     0.40543
      H   25    0.20789      0.00000     0.28971    0.00239     0.29211
 =======================================================================
   * Total *   -0.00000     12.99561    35.83502    0.16937    49.00000

 Normal termination of Gaussian 16 at Wed Dec  9 23:13:27 2020.
