 Gaussian 16, Revision A.03,

 -----------------------------------------------------------
 # opt freq B3LYP/6-31G(d) empiricaldispersion=gd3bj scf=xqc
 -----------------------------------------------------------

 ------------------------------
 CID_84654471_JID_1126_neutraal
 ------------------------------
 Symbolic Z-matrix:
 Charge =  0 Multiplicity = 1

 SCF Done:  E(RB3LYP) =  -822.115481373     A.U. after   13 cycles
 SCF Done:  E(RB3LYP) =  -822.131588459     A.U. after   11 cycles
 SCF Done:  E(RB3LYP) =  -822.133561668     A.U. after   11 cycles
 SCF Done:  E(RB3LYP) =  -822.133790043     A.U. after   11 cycles
 SCF Done:  E(RB3LYP) =  -822.134036557     A.U. after   11 cycles
 SCF Done:  E(RB3LYP) =  -822.134209886     A.U. after   10 cycles
 SCF Done:  E(RB3LYP) =  -822.134372755     A.U. after   11 cycles
 SCF Done:  E(RB3LYP) =  -822.134351914     A.U. after   11 cycles
 SCF Done:  E(RB3LYP) =  -822.134563986     A.U. after   10 cycles
 SCF Done:  E(RB3LYP) =  -822.134235045     A.U. after   13 cycles
 SCF Done:  E(RB3LYP) =  -822.136246366     A.U. after   11 cycles
 SCF Done:  E(RB3LYP) =  -822.136273010     A.U. after    9 cycles
 SCF Done:  E(RB3LYP) =  -822.136279757     A.U. after    9 cycles
 SCF Done:  E(RB3LYP) =  -822.136280710     A.U. after    7 cycles
 SCF Done:  E(RB3LYP) =  -822.136280905     A.U. after    7 cycles
 SCF Done:  E(RB3LYP) =  -822.136280936     A.U. after    6 cycles
 Optimization completed.
    -- Stationary point found.
 Normal termination of Gaussian 16 at Tue Dec  8 19:26:32 2020.

 --------------------------------------------------------------------
 #N Geom=AllCheck Guess=TCheck SCRF=Check GenChk RB3LYP/6-31G(d) Freq
 --------------------------------------------------------------------

 Structure from the checkpoint file:  "JID_1126.chk"
 ------------------------------
 CID_84654471_JID_1126_neutraal
 ------------------------------
 Charge =  0 Multiplicity = 1

 SCF Done:  E(RB3LYP) =  -822.136280936     A.U. after    1 cycles

  Exact polarizability: 126.902  -5.006 109.033  -2.217  -3.779  96.188
 Approx polarizability: 163.519  -7.684 154.800  -2.265  -5.517 149.214

                      1                      2                      3
                      A                      A                      A
 Frequencies --     21.5365                53.6828                57.0933
 Red. masses --      4.4547                 3.3060                 3.4809
 Frc consts  --      0.0012                 0.0056                 0.0067
 IR Inten    --      0.4245                 1.0799                 0.6558

                      4                      5                      6
                      A                      A                      A
 Frequencies --     96.5052               118.6452               160.7394
 Red. masses --      2.7827                 4.0531                 3.4131
 Frc consts  --      0.0153                 0.0336                 0.0520
 IR Inten    --      0.9794                 0.9451                 0.8226

                      7                      8                      9
                      A                      A                      A
 Frequencies --    232.0908               263.6889               312.9687
 Red. masses --      2.6824                 2.7624                 2.7504
 Frc consts  --      0.0851                 0.1132                 0.1587
 IR Inten    --      0.5047                 7.7787                 3.7286

                     10                     11                     12
                      A                      A                      A
 Frequencies --    334.7762               336.5400               363.0721
 Red. masses --      2.5311                 1.1619                 2.8526
 Frc consts  --      0.1671                 0.0775                 0.2216
 IR Inten    --      0.7413                50.7996                 1.9628

                     13                     14                     15
                      A                      A                      A
 Frequencies --    406.2762               450.6003               506.6156
 Red. masses --      2.3002                 2.3818                 2.6505
 Frc consts  --      0.2237                 0.2849                 0.4008
 IR Inten    --     14.5411                 6.2615                10.5772

                     16                     17                     18
                      A                      A                      A
 Frequencies --    623.6495               662.7215               678.9744
 Red. masses --      3.3029                 3.2799                 3.1509
 Frc consts  --      0.7569                 0.8487                 0.8558
 IR Inten    --      1.6013                 1.0903                 0.8644

                     19                     20                     21
                      A                      A                      A
 Frequencies --    790.9999               796.3263               838.1372
 Red. masses --      2.4919                 1.0975                 1.2753
 Frc consts  --      0.9186                 0.4100                 0.5278
 IR Inten    --     10.7467                 0.3294                 7.9939

                     22                     23                     24
                      A                      A                      A
 Frequencies --    883.1927               891.0887               902.5750
 Red. masses --      1.7042                 1.6762                 1.3866
 Frc consts  --      0.7832                 0.7842                 0.6656
 IR Inten    --      1.5259                 2.1018                95.9309

                     25                     26                     27
                      A                      A                      A
 Frequencies --    912.9963               936.8715               942.0647
 Red. masses --      3.6082                 3.3043                 2.6294
 Frc consts  --      1.7720                 1.7088                 1.3749
 IR Inten    --     21.8496                 2.5260                 2.2236

                     28                     29                     30
                      A                      A                      A
 Frequencies --    967.2491              1008.9014              1021.9991
 Red. masses --      2.7449                 2.5643                 1.6861
 Frc consts  --      1.5131                 1.5378                 1.0376
 IR Inten    --      3.6814                 5.1442                28.2099

                     31                     32                     33
                      A                      A                      A
 Frequencies --   1059.0191              1068.3576              1091.0566
 Red. masses --      2.2277                 1.2633                 1.3526
 Frc consts  --      1.4720                 0.8495                 0.9486
 IR Inten    --     38.3407                13.3039                 1.5639

                     34                     35                     36
                      A                      A                      A
 Frequencies --   1097.5565              1108.1750              1136.7901
 Red. masses --      1.3226                 1.7564                 1.1165
 Frc consts  --      0.9387                 1.2708                 0.8501
 IR Inten    --      2.0034                14.0868                 2.4220

                     37                     38                     39
                      A                      A                      A
 Frequencies --   1139.6224              1157.9822              1165.2334
 Red. masses --      1.4128                 1.3250                 1.2952
 Frc consts  --      1.0811                 1.0468                 1.0361
 IR Inten    --      5.1290                 5.5132                 3.1697

                     40                     41                     42
                      A                      A                      A
 Frequencies --   1207.2020              1217.7844              1236.3326
 Red. masses --      1.3768                 1.5155                 2.2607
 Frc consts  --      1.1822                 1.3242                 2.0359
 IR Inten    --      1.2210                15.2513                 4.2491

                     43                     44                     45
                      A                      A                      A
 Frequencies --   1253.6540              1279.5515              1280.8048
 Red. masses --      1.7107                 1.6883                 1.3731
 Frc consts  --      1.5841                 1.6286                 1.3272
 IR Inten    --     27.3988                 9.5912                 3.1165

                     46                     47                     48
                      A                      A                      A
 Frequencies --   1306.3330              1308.5994              1339.1532
 Red. masses --      1.4486                 1.5929                 1.4636
 Frc consts  --      1.4565                 1.6072                 1.5465
 IR Inten    --     13.5061                 8.8491                30.9432

                     49                     50                     51
                      A                      A                      A
 Frequencies --   1354.6139              1377.9708              1405.9484
 Red. masses --      1.5505                 1.2954                 1.2985
 Frc consts  --      1.6763                 1.4492                 1.5123
 IR Inten    --      9.4348                 9.9808                32.0620

                     52                     53                     54
                      A                      A                      A
 Frequencies --   1445.9055              1488.9502              1505.4611
 Red. masses --      1.4251                 1.0878                 1.0813
 Frc consts  --      1.7554                 1.4209                 1.4439
 IR Inten    --     11.5404                 2.6370                 7.7825

                     55                     56                     57
                      A                      A                      A
 Frequencies --   1509.4602              1523.0476              1533.1083
 Red. masses --      1.0920                 1.2737                 1.0808
 Frc consts  --      1.4659                 1.7408                 1.4967
 IR Inten    --      6.5933                 2.4728                 0.5850

                     58                     59                     60
                      A                      A                      A
 Frequencies --   1555.6759              1701.6863              3008.2655
 Red. masses --      1.1144                 1.0913                 1.0669
 Frc consts  --      1.5891                 1.8618                 5.6884
 IR Inten    --      3.6478                18.9353                69.4754

                     61                     62                     63
                      A                      A                      A
 Frequencies --   3012.0385              3023.1998              3054.1220
 Red. masses --      1.0557                 1.0613                 1.1095
 Frc consts  --      5.6428                 5.7152                 6.0975
 IR Inten    --     98.5520                 2.1204                65.9412

                     64                     65                     66
                      A                      A                      A
 Frequencies --   3060.0306              3062.5219              3080.1567
 Red. masses --      1.0673                 1.0930                 1.0954
 Frc consts  --      5.8884                 6.0400                 6.1228
 IR Inten    --     49.8007                30.8775                13.4183

                     67                     68                     69
                      A                      A                      A
 Frequencies --   3098.6827              3109.1519              3149.8495
 Red. masses --      1.0892                 1.1058                 1.0534
 Frc consts  --      6.1616                 6.2980                 6.1579
 IR Inten    --     86.1452                22.4132                12.0832

                     70                     71                     72
                      A                      A                      A
 Frequencies --   3154.6699              3160.7560              3228.6449
 Red. masses --      1.0623                 1.0824                 1.1197
 Frc consts  --      6.2286                 6.3713                 6.8766
 IR Inten    --     10.3986                16.3970                 0.7968

                     73                     74                     75
                      A                      A                      A
 Frequencies --   3241.8585              3450.3827              3537.5672
 Red. masses --      1.1165                 1.0496                 1.0921
 Frc consts  --      6.9136                 7.3625                 8.0526
 IR Inten    --     17.5411                 6.1680                 0.9921

 - Thermochemistry -
 -------------------
 Temperature   298.150 Kelvin.  Pressure   1.00000 Atm.
 Atom     1 has atomic number  6 and mass  12.00000

 Molecular mass:   172.10342 amu.
 Principal axes and moments of inertia in atomic units:
                           1         2         3
     Eigenvalues --  1266.149142911.354523528.56172
           X            0.99993  -0.00374  -0.01162
           Y            0.00349   0.99976  -0.02166
           Z            0.01170   0.02162   0.99970
 This molecule is an asymmetric top.
 Rotational symmetry number  1.
 Warning -- assumption of classical behavior for rotation
           may cause significant error
 Rotational temperatures (Kelvin)      0.06841     0.02975     0.02455
 Rotational constants (GHZ):           1.42538     0.61990     0.51147
 Zero-point vibrational energy     627199.2 (Joules/Mol)
                                  149.90420 (Kcal/Mol)
 Warning -- explicit consideration of  15 degrees of freedom as
           vibrations may cause significant error
 Vibrational temperatures:     30.99    77.24    82.14   138.85   170.70
          (Kelvin)            231.27   333.93   379.39   450.29   481.67
                              484.21   522.38   584.54   648.31   728.91
                              897.29   953.51   976.89  1138.07  1145.74
                             1205.89  1270.72  1282.08  1298.60  1313.60
                             1347.95  1355.42  1391.66  1451.58  1470.43
                             1523.69  1537.13  1569.79  1579.14  1594.42
                             1635.59  1639.66  1666.08  1676.51  1736.89
                             1752.12  1778.81  1803.73  1840.99  1842.79
                             1879.52  1882.78  1926.74  1948.99  1982.59
                             2022.85  2080.34  2142.27  2166.02  2171.78
                             2191.33  2205.80  2238.27  2448.35  4328.22
                             4333.65  4349.71  4394.20  4402.70  4406.29
                             4431.66  4458.31  4473.38  4531.93  4538.87
                             4547.62  4645.30  4664.31  4964.33  5089.77

 Zero-point correction=                           0.238888 (Hartree/Particle)
 Thermal correction to Energy=                    0.251039
 Thermal correction to Enthalpy=                  0.251983
 Thermal correction to Gibbs Free Energy=         0.198897
 Sum of electronic and zero-point Energies=           -821.897393
 Sum of electronic and thermal Energies=              -821.885242
 Sum of electronic and thermal Enthalpies=            -821.884298
 Sum of electronic and thermal Free Energies=         -821.937384

                     E (Thermal)             CV                S
                      KCal/Mol        Cal/Mol-Kelvin    Cal/Mol-Kelvin
 Total                  157.529             45.179            111.730
 Electronic               0.000              0.000              0.000
 Translational            0.889              2.981             41.336
 Rotational               0.889              2.981             30.943
 Vibrational            155.752             39.218             39.451
 Vibration     1          0.593              1.985              6.487
 Vibration     2          0.596              1.976              4.677
 Vibration     3          0.596              1.975              4.555
 Vibration     4          0.603              1.952              3.524
 Vibration     5          0.609              1.934              3.122
 Vibration     6          0.622              1.890              2.541
 Vibration     7          0.653              1.792              1.863
 Vibration     8          0.670              1.739              1.637
 Vibration     9          0.701              1.649              1.347
 Vibration    10          0.716              1.606              1.237
 Vibration    11          0.717              1.603              1.229
 Vibration    12          0.737              1.548              1.109
 Vibration    13          0.771              1.457              0.940
 Vibration    14          0.809              1.360              0.794
 Vibration    15          0.862              1.235              0.642

 Optimization completed.
    -- Stationary point found.
 Normal termination of Gaussian 16 at Tue Dec  8 19:32:38 2020.

 ----------------------------------------------------------------------
 # B3LYP/6-311++G(d,p) empiricaldispersion=gd3bj scf=xqc pop=npa geom=c
 heck
 ----------------------------------------------------------------------

 --------------------------------------
 CID_84654471_JID_1126_Energie_neutraal
 --------------------------------------
 Structure from the checkpoint file:  "JID_1126.chk"
 Charge =  0 Multiplicity = 1

 SCF Done:  E(RB3LYP) =  -822.288095269     A.U. after   13 cycles
 Normal termination of Gaussian 16 at Tue Dec  8 19:35:19 2020.

 ----------------------------------------------------------------------
 # B3LYP/6-311++G(d,p) empiricaldispersion=gd3bj scf=xqc pop=npa geom=c
 heck
 ----------------------------------------------------------------------

 ------------------------------------
 CID_84654471_JID_1126_Energie_kation
 ------------------------------------
 Structure from the checkpoint file:  "JID_1126.chk"
 Charge =  1 Multiplicity = 2

 SCF Done:  E(UB3LYP) =  -822.005945379     A.U. after   26 cycles
 Normal termination of Gaussian 16 at Tue Dec  8 19:42:53 2020.
 Gaussian 16:  ES64L-G16RevA.03 25-Dec-2016

 ----------------------------------------------------------------------
 # B3LYP/6-311++G(d,p) empiricaldispersion=gd3bj scf=xqc pop=npa geom=c
 heck
 ----------------------------------------------------------------------

 -----------------------------------
 CID_84654471_JID_1126_Energie_anion
 -----------------------------------
 Structure from the checkpoint file:  "JID_1126.chk"
 Charge = -1 Multiplicity = 2

                         Standard orientation:
 ---------------------------------------------------------------------
 Center     Atomic      Atomic             Coordinates (Angstroms)
 Number     Number       Type             X           Y           Z
 ---------------------------------------------------------------------
      1          6           0       -2.815138    0.593839    1.109917
      2          6           0       -3.254054    1.172039   -0.209371
      3          6           0       -2.668218   -0.217540   -0.157369
      4         16           0       -1.041107   -0.474868   -0.874863
      5          6           0       -0.363351   -1.678227    0.340355
      6          6           0        1.129487   -1.990825    0.128113
      7          7           0        2.072756   -0.897398    0.238333
      8          6           0        2.338322    0.011725   -0.892967
      9          6           0        2.400391    1.206231    0.112523
     10          6           0        1.871812    0.219559    1.179976
     11          7           0        1.561260    2.374361   -0.081694
     12          1           0       -3.575833    0.283536    1.821047
     13          1           0       -1.910593    0.994146    1.558387
     14          1           0       -4.316688    1.260212   -0.415756
     15          1           0       -2.644957    1.960228   -0.641564
     16          1           0       -3.359692   -1.045513   -0.297016
     17          1           0       -0.529190   -1.267100    1.341414
     18          1           0       -0.932301   -2.611811    0.267461
     19          1           0        1.382607   -2.762865    0.870709
     20          1           0        1.274666   -2.450085   -0.856914
     21          1           0        3.256536   -0.231694   -1.445244
     22          1           0        1.514323    0.121701   -1.611789
     23          1           0        3.424271    1.538286    0.307112
     24          1           0        0.822974    0.439617    1.427753
     25          1           0        2.438703    0.132187    2.115589
     26          1           0        1.913112    2.933015   -0.858229
     27          1           0        0.626165    2.064477   -0.348683
 ---------------------------------------------------------------------

 SCF Done:  E(UB3LYP) =  -822.271295769     A.U. after   30 cycles

 The electronic state is 2-A.
 Alpha  occ. eigenvalues --  -88.74169 -14.20130 -14.19819 -10.10585 -10.10324
 Alpha  occ. eigenvalues --  -10.10273 -10.09646 -10.09116 -10.08886 -10.08293
 Alpha  occ. eigenvalues --  -10.07975  -7.82798  -5.79184  -5.78826  -5.78173
 Alpha  occ. eigenvalues --   -0.84724  -0.78076  -0.77399  -0.69614  -0.63933
 Alpha  occ. eigenvalues --   -0.58385  -0.56823  -0.51232  -0.50445  -0.46997
 Alpha  occ. eigenvalues --   -0.45053  -0.41077  -0.40220  -0.39894  -0.37728
 Alpha  occ. eigenvalues --   -0.36279  -0.35046  -0.32663  -0.31289  -0.29859
 Alpha  occ. eigenvalues --   -0.28797  -0.28095  -0.27267  -0.26124  -0.24312
 Alpha  occ. eigenvalues --   -0.23750  -0.22692  -0.21363  -0.19139  -0.14782
 Alpha  occ. eigenvalues --   -0.12971  -0.11375   0.04550
 Alpha virt. eigenvalues --    0.06155   0.06819   0.07974   0.08436   0.08722
 Alpha virt. eigenvalues --    0.08937   0.10150   0.10601   0.11172   0.11370
 Alpha virt. eigenvalues --    0.11928   0.12829   0.13467   0.13826   0.15163

  Beta  occ. eigenvalues --  -88.74166 -14.20132 -14.19800 -10.10567 -10.10314
  Beta  occ. eigenvalues --  -10.10258 -10.09627 -10.09101 -10.08872 -10.08274
  Beta  occ. eigenvalues --  -10.07950  -7.82794  -5.79182  -5.78821  -5.78170
  Beta  occ. eigenvalues --   -0.84712  -0.78042  -0.77360  -0.69587  -0.63908
  Beta  occ. eigenvalues --   -0.58353  -0.56789  -0.51169  -0.50393  -0.46945
  Beta  occ. eigenvalues --   -0.45014  -0.41030  -0.40155  -0.39859  -0.37686
  Beta  occ. eigenvalues --   -0.36254  -0.35020  -0.32628  -0.31259  -0.29830
  Beta  occ. eigenvalues --   -0.28775  -0.28058  -0.27234  -0.26093  -0.24285
  Beta  occ. eigenvalues --   -0.23717  -0.22665  -0.21338  -0.19102  -0.14762
  Beta  occ. eigenvalues --   -0.12952  -0.11361
  Beta virt. eigenvalues --    0.06683   0.07308   0.07606   0.08437   0.09037
  Beta virt. eigenvalues --    0.09326   0.09525   0.10525   0.10924   0.11547
  Beta virt. eigenvalues --    0.11851   0.12183   0.12982   0.13792   0.14137

 Mulliken charges and spin densities:
               1          2
     1  C    1.211258  -1.557554
     2  C    0.106084  -0.510295
     3  C   -1.037177   0.908328
     4  S    1.230031  -1.168660
     5  C   -0.571604   0.311430
     6  C    0.374773  -0.967945
     7  N   -0.099021   0.121244
     8  C    0.088578  -0.500187
     9  C   -0.180662   0.202447
    10  C    0.375770  -0.756583
    11  N   -0.243559  -0.125120
    12  H   -0.501600   0.670176
    13  H    0.047112   0.105281
    14  H   -0.296451   0.460487
    15  H   -0.079288   0.215352
    16  H   -0.555232   0.831363
    17  H   -0.018998   0.195749
    18  H   -0.361826   0.572188
    19  H   -0.211406   0.401174
    20  H   -0.013973   0.170525
    21  H   -0.473399   0.637486
    22  H    0.052052   0.042934
    23  H   -0.222195   0.409906
    24  H    0.212157  -0.103183
    25  H   -0.092315   0.231686
    26  H   -0.083643   0.312465
    27  H    0.344533  -0.110695
 Sum of Mulliken charges =  -1.00000   1.00000

 Dipole moment (field-independent basis, Debye):
    X=              2.7944    Y=              1.0737    Z=             -1.3404  Tot=              3.2800
 Quadrupole moment (field-independent basis, Debye-Ang):
   XX=           -158.7990   YY=           -122.0486   ZZ=           -109.0657
   XY=             -5.4856   XZ=              6.9366   YZ=             -0.3195

 Summary of Natural Population Analysis:

                                       Natural Population
                Natural  -----------------------------------------------
    Atom  No    Charge         Core      Valence    Rydberg      Total
 -----------------------------------------------------------------------
      C    1   -0.19896      0.99960     2.18821    0.01115     3.19896
      C    2   -0.19450      0.99960     2.18445    0.01044     3.19450
      C    3   -0.18923      0.99955     2.17498    0.01471     3.18923
      S    4    0.09133      4.99957     2.89046    0.01865     7.90867
      C    5   -0.25740      0.99959     2.24768    0.01013     3.25740
      C    6   -0.08425      0.99960     2.07210    0.01255     3.08425
      N    7   -0.28708      0.99973     2.77318    0.01417     3.78708
      C    8   -0.08501      0.99962     2.07492    0.01046     3.08501
      C    9   -0.01925      0.99960     2.00599    0.01365     3.01925
      C   10   -0.08013      0.99962     2.07002    0.01048     3.08013
      N   11   -0.42105      0.99976     2.91057    0.01072     3.92105
      H   12    0.10786      0.00000     0.38947    0.00267     0.39214
      H   13    0.10401      0.00000     0.39452    0.00147     0.39599
      H   14    0.10652      0.00000     0.39199    0.00149     0.39348
      H   15    0.10302      0.00000     0.39580    0.00118     0.39698
      H   16    0.10838      0.00000     0.38898    0.00264     0.39162
      H   17    0.10085      0.00000     0.39711    0.00203     0.39915
      H   18    0.10478      0.00000     0.39323    0.00199     0.39522
      H   19    0.09705      0.00000     0.40151    0.00144     0.40295
      H   20    0.09726      0.00000     0.40163    0.00111     0.40274
      H   21    0.08828      0.00000     0.40987    0.00186     0.41172
      H   22    0.08771      0.00000     0.41018    0.00211     0.41229
      H   23    0.09166      0.00000     0.40708    0.00126     0.40834
      H   24    0.08724      0.00000     0.41087    0.00189     0.41276
      H   25    0.08969      0.00000     0.40892    0.00139     0.41031
      H   26    0.17412      0.00000     0.32400    0.00189     0.32588
      H   27    0.17709      0.00000     0.32024    0.00266     0.32291
 =======================================================================
   * Total *   -0.00000     14.99584    31.83797    0.16619    47.00000

 Normal termination of Gaussian 16 at Tue Dec  8 19:51:44 2020.
