 Gaussian 16, Revision A.03,

 -----------------------------------------------------------
 # opt freq B3LYP/6-31G(d) empiricaldispersion=gd3bj scf=xqc
 -----------------------------------------------------------

 -------------------------------
 CID_12262979_JID_10806_neutraal
 -------------------------------
 Symbolic Z-matrix:
 Charge =  0 Multiplicity = 1

 SCF Done:  E(RB3LYP) =  -895.433701313     A.U. after   17 cycles
 SCF Done:  E(RB3LYP) =  -895.437890418     A.U. after   14 cycles
 SCF Done:  E(RB3LYP) =  -895.438377941     A.U. after   15 cycles
 SCF Done:  E(RB3LYP) =  -895.436613173     A.U. after   15 cycles
 SCF Done:  E(RB3LYP) =  -895.438638996     A.U. after   15 cycles
 SCF Done:  E(RB3LYP) =  -895.438678270     A.U. after   15 cycles
 SCF Done:  E(RB3LYP) =  -895.438733994     A.U. after   14 cycles
 SCF Done:  E(RB3LYP) =  -895.438736880     A.U. after   11 cycles
 SCF Done:  E(RB3LYP) =  -895.438739253     A.U. after   11 cycles
 SCF Done:  E(RB3LYP) =  -895.438739386     A.U. after    8 cycles
 Optimization completed.
    -- Stationary point found.
 Normal termination of Gaussian 16 at Mon Dec 14 17:40:51 2020.

 --------------------------------------------------------------------
 #N Geom=AllCheck Guess=TCheck SCRF=Check GenChk RB3LYP/6-31G(d) Freq
 --------------------------------------------------------------------

 Structure from the checkpoint file:  "JID_10806.chk"
 -------------------------------
 CID_12262979_JID_10806_neutraal
 -------------------------------
 Charge =  0 Multiplicity = 1

 SCF Done:  E(RB3LYP) =  -895.438739386     A.U. after    1 cycles

  Exact polarizability: 406.678  -6.416 224.130   0.009  -0.000  57.801
 Approx polarizability: 644.491 -27.506 414.201   0.032   0.005  91.720

                      1                      2                      3
                      A                      A                      A
 Frequencies --     17.6932                23.7212                41.3660
 Red. masses --      6.0553                 7.4937                 6.8424
 Frc consts  --      0.0011                 0.0025                 0.0069
 IR Inten    --      2.0059                 0.8307                 0.2881

                      4                      5                      6
                      A                      A                      A
 Frequencies --     77.9748               103.5358               116.0978
 Red. masses --      7.6598                 7.8829                 6.2245
 Frc consts  --      0.0274                 0.0498                 0.0494
 IR Inten    --      0.8599                 0.4727                 0.4102

                      7                      8                      9
                      A                      A                      A
 Frequencies --    171.0005               178.2795               220.7313
 Red. masses --      5.6579                 4.4460                 5.2089
 Frc consts  --      0.0975                 0.0833                 0.1495
 IR Inten    --      2.1796                 0.1776                 0.1096

                     10                     11                     12
                      A                      A                      A
 Frequencies --    224.3201               243.6483               329.3591
 Red. masses --      7.6029                 8.9419                 5.5528
 Frc consts  --      0.2254                 0.3128                 0.3549
 IR Inten    --      1.1260                 2.0157                 1.1753

                     13                     14                     15
                      A                      A                      A
 Frequencies --    356.7078               422.6157               438.5550
 Red. masses --      5.3242                 4.0538                 9.1394
 Frc consts  --      0.3991                 0.4266                 1.0357
 IR Inten    --      5.5663                 2.1594                 3.6972

                     16                     17                     18
                      A                      A                      A
 Frequencies --    477.2192               477.6543               484.4707
 Red. masses --      3.7219                 8.5350                 4.6029
 Frc consts  --      0.4994                 1.1473                 0.6365
 IR Inten    --      0.2039                 0.3657                 2.2578

                     19                     20                     21
                      A                      A                      A
 Frequencies --    506.6404               531.1463               567.0607
 Red. masses --      8.0941                 6.9968                 6.6930
 Frc consts  --      1.2241                 1.1630                 1.2680
 IR Inten    --      0.0312                 0.1846                 3.2649

                     22                     23                     24
                      A                      A                      A
 Frequencies --    583.2597               593.5761               604.6386
 Red. masses --      3.9161                 5.2616                 7.4582
 Frc consts  --      0.7849                 1.0922                 1.6065
 IR Inten    --      2.4342                 1.8247                 0.4502

                     25                     26                     27
                      A                      A                      A
 Frequencies --    641.2771               650.5849               678.5778
 Red. masses --      7.9611                 3.7590                 5.5369
 Frc consts  --      1.9289                 0.9374                 1.5022
 IR Inten    --     10.7129                 0.2358                 1.2061

                     28                     29                     30
                      A                      A                      A
 Frequencies --    743.1919               744.6990               752.1899
 Red. masses --      8.3745                 6.3789                 1.3575
 Frc consts  --      2.7253                 2.0843                 0.4525
 IR Inten    --     16.9474                 1.1656                 0.3116

                     31                     32                     33
                      A                      A                      A
 Frequencies --    791.8439               808.7167               815.5391
 Red. masses --      1.8727                 5.4327                 1.3160
 Frc consts  --      0.6918                 2.0934                 0.5157
 IR Inten    --     40.5151                 1.8796                27.6214

                     34                     35                     36
                      A                      A                      A
 Frequencies --    820.2771               822.0211               883.0393
 Red. masses --      1.6373                12.2012                 5.1279
 Frc consts  --      0.6491                 4.8576                 2.3559
 IR Inten    --     49.4983                34.2872                 0.7007

                     37                     38                     39
                      A                      A                      A
 Frequencies --    887.9460               903.7599               922.6001
 Red. masses --      1.6040                 1.3620                 1.4126
 Frc consts  --      0.7451                 0.6555                 0.7084
 IR Inten    --      1.0010                 1.2222                 0.0038

                     40                     41                     42
                      A                      A                      A
 Frequencies --    963.7069               976.2914               980.4909
 Red. masses --      1.3242                 6.7018                 1.3103
 Frc consts  --      0.7246                 3.7636                 0.7422
 IR Inten    --      0.6585                 8.9098                 1.1310

                     43                     44                     45
                      A                      A                      A
 Frequencies --    995.8503              1000.1870              1049.2550
 Red. masses --      6.8870                 1.2872                 1.3426
 Frc consts  --      4.0241                 0.7587                 0.8709
 IR Inten    --      8.7583                 0.0000                46.4704

                     46                     47                     48
                      A                      A                      A
 Frequencies --   1052.4969              1069.3031              1109.7875
 Red. masses --      2.8436                 2.6632                 2.2885
 Frc consts  --      1.8559                 1.7941                 1.6607
 IR Inten    --      5.9176                 1.6405                 5.2925

                     49                     50                     51
                      A                      A                      A
 Frequencies --   1179.9333              1191.4426              1196.9843
 Red. masses --      1.4318                 1.6825                 1.1433
 Frc consts  --      1.1745                 1.4071                 0.9651
 IR Inten    --      1.0333                 5.6317                 1.1967

                     52                     53                     54
                      A                      A                      A
 Frequencies --   1216.9444              1225.7462              1254.6732
 Red. masses --      1.8288                 2.0870                 2.1664
 Frc consts  --      1.5958                 1.8474                 2.0093
 IR Inten    --      9.2229                 3.0761                 5.3385

                     55                     56                     57
                      A                      A                      A
 Frequencies --   1273.8784              1297.8954              1337.4941
 Red. masses --      3.5963                 2.0441                 3.1533
 Frc consts  --      3.4384                 2.0287                 3.3236
 IR Inten    --      5.8700                37.2460               159.7240

                     58                     59                     60
                      A                      A                      A
 Frequencies --   1377.6561              1401.3228              1414.9273
 Red. masses --      3.3579                11.4913                 7.9070
 Frc consts  --      3.7549                13.2953                 9.3268
 IR Inten    --     28.3524               754.8969                 7.5293

                     61                     62                     63
                      A                      A                      A
 Frequencies --   1418.4284              1439.8201              1486.6849
 Red. masses --      4.3030                 2.3269                 2.1592
 Frc consts  --      5.1008                 2.8421                 2.8118
 IR Inten    --     33.3044                 2.1649                 2.5368

                     64                     65                     66
                      A                      A                      A
 Frequencies --   1504.2178              1544.2149              1565.5775
 Red. masses --      2.3708                 6.5556                 3.6674
 Frc consts  --      3.1606                 9.2103                 5.2961
 IR Inten    --     46.4477               281.2411                26.1657

                     67                     68                     69
                      A                      A                      A
 Frequencies --   1611.2914              1630.6889              1636.2386
 Red. masses --      7.5591                 9.1783                 7.8199
 Frc consts  --     11.5630                14.3798                12.3352
 IR Inten    --     12.2406                82.9180                58.7676

                     70                     71                     72
                      A                      A                      A
 Frequencies --   1645.4831              1680.3722              2310.5079
 Red. masses --      5.0115                 5.7770                11.9984
 Frc consts  --      7.9947                 9.6110                37.7389
 IR Inten    --     27.1538                 0.8683               182.2106

                     73                     74                     75
                      A                      A                      A
 Frequencies --   3184.9237              3188.8712              3197.5850
 Red. masses --      1.0869                 1.0870                 1.0890
 Frc consts  --      6.4960                 6.5128                 6.5602
 IR Inten    --      1.6817                 1.4832                10.8832

                     76                     77                     78
                      A                      A                      A
 Frequencies --   3205.2622              3209.8004              3219.2613
 Red. masses --      1.0912                 1.0932                 1.0960
 Frc consts  --      6.6050                 6.6362                 6.6922
 IR Inten    --     19.0907                25.8094                28.7147

                     79                     80                     81
                      A                      A                      A
 Frequencies --   3219.8990              3285.9964              3308.1506
 Red. masses --      1.0959                 1.0952                 1.1004
 Frc consts  --      6.6942                 6.9677                 7.0956
 IR Inten    --      2.1676                 0.9819                 3.0991

 - Thermochemistry -
 -------------------
 Temperature   298.150 Kelvin.  Pressure   1.00000 Atm.
 Atom     1 has atomic number  6 and mass  12.00000

 Molecular mass:   263.05824 amu.
 Principal axes and moments of inertia in atomic units:
                           1         2         3
     Eigenvalues --  2292.04482********************
           X            0.99997   0.00815   0.00000
           Y           -0.00815   0.99997  -0.00000
           Z           -0.00000   0.00000   1.00000
 This molecule is an asymmetric top.
 Rotational symmetry number  1.
 Warning -- assumption of classical behavior for rotation
           may cause significant error
 Rotational temperatures (Kelvin)      0.03779     0.00669     0.00569
 Rotational constants (GHZ):           0.78739     0.13944     0.11847
 Zero-point vibrational energy     554571.3 (Joules/Mol)
                                  132.54572 (Kcal/Mol)
 Warning -- explicit consideration of  24 degrees of freedom as
           vibrations may cause significant error
 Vibrational temperatures:     25.46    34.13    59.52   112.19   148.96
          (Kelvin)            167.04   246.03   256.50   317.58   322.75
                              350.56   473.87   513.22   608.05   630.98
                              686.61   687.24   697.05   728.94   764.20
                              815.87   839.18   854.02   869.94   922.65
                              936.05   976.32  1069.29  1071.46  1082.23
                             1139.29  1163.56  1173.38  1180.20  1182.71
                             1270.50  1277.56  1300.31  1327.42  1386.56
                             1404.67  1410.71  1432.81  1439.05  1509.64
                             1514.31  1538.49  1596.74  1697.66  1714.22
                             1722.19  1750.91  1763.58  1805.19  1832.83
                             1867.38  1924.36  1982.14  2016.19  2035.76
                             2040.80  2071.58  2139.01  2164.23  2221.78
                             2252.52  2318.29  2346.20  2354.18  2367.48
                             2417.68  3324.31  4582.39  4588.07  4600.61
                             4611.66  4618.19  4631.80  4632.72  4727.82
                             4759.69

 Zero-point correction=                           0.211225 (Hartree/Particle)
 Thermal correction to Energy=                    0.226556
 Thermal correction to Enthalpy=                  0.227501
 Thermal correction to Gibbs Free Energy=         0.165550
 Sum of electronic and zero-point Energies=           -895.227514
 Sum of electronic and thermal Energies=              -895.212183
 Sum of electronic and thermal Enthalpies=            -895.211239
 Sum of electronic and thermal Free Energies=         -895.273189

                     E (Thermal)             CV                S
                      KCal/Mol        Cal/Mol-Kelvin    Cal/Mol-Kelvin
 Total                  142.166             59.413            130.385
 Electronic               0.000              0.000              0.000
 Translational            0.889              2.981             42.601
 Rotational               0.889              2.981             34.468
 Vibrational            140.389             53.451             53.316
 Vibration     1          0.593              1.986              6.878
 Vibration     2          0.593              1.985              6.295
 Vibration     3          0.594              1.981              5.193
 Vibration     4          0.599              1.964              3.941
 Vibration     5          0.605              1.946              3.387
 Vibration     6          0.608              1.936              3.164
 Vibration     7          0.626              1.878              2.424
 Vibration     8          0.629              1.869              2.346
 Vibration     9          0.647              1.810              1.953
 Vibration    10          0.649              1.804              1.924
 Vibration    11          0.659              1.773              1.776
 Vibration    12          0.712              1.617              1.263
 Vibration    13          0.732              1.561              1.136
 Vibration    14          0.785              1.421              0.883
 Vibration    15          0.799              1.386              0.831
 Vibration    16          0.834              1.301              0.718
 Vibration    17          0.834              1.300              0.716
 Vibration    18          0.841              1.284              0.698
 Vibration    19          0.862              1.235              0.642
 Vibration    20          0.886              1.181              0.585
 Vibration    21          0.923              1.103              0.510
 Vibration    22          0.940              1.068              0.479
 Vibration    23          0.951              1.045              0.461
 Vibration    24          0.963              1.022              0.442

 Optimization completed.
    -- Stationary point found.
 Normal termination of Gaussian 16 at Mon Dec 14 17:51:48 2020.

 ----------------------------------------------------------------------
 # B3LYP/6-311++G(d,p) empiricaldispersion=gd3bj scf=xqc pop=npa geom=c
 heck
 ----------------------------------------------------------------------

 ---------------------------------------
 CID_12262979_JID_10806_Energie_neutraal
 ---------------------------------------
 Structure from the checkpoint file:  "JID_10806.chk"
 Charge =  0 Multiplicity = 1

 SCF Done:  E(RB3LYP) =  -895.674628140     A.U. after   18 cycles
 Normal termination of Gaussian 16 at Mon Dec 14 17:56:25 2020.

 ----------------------------------------------------------------------
 # B3LYP/6-311++G(d,p) empiricaldispersion=gd3bj scf=xqc pop=npa geom=c
 heck
 ----------------------------------------------------------------------

 -------------------------------------
 CID_12262979_JID_10806_Energie_kation
 -------------------------------------
 Structure from the checkpoint file:  "JID_10806.chk"
 Charge =  1 Multiplicity = 2

 SCF Done:  E(UB3LYP) =  -895.393267592     A.U. after   29 cycles
 Normal termination of Gaussian 16 at Mon Dec 14 18:06:50 2020.
 Gaussian 16:  ES64L-G16RevA.03 25-Dec-2016

 ----------------------------------------------------------------------
 # B3LYP/6-311++G(d,p) empiricaldispersion=gd3bj scf=xqc pop=npa geom=c
 heck
 ----------------------------------------------------------------------

 ------------------------------------
 CID_12262979_JID_10806_Energie_anion
 ------------------------------------
 Structure from the checkpoint file:  "JID_10806.chk"
 Charge = -1 Multiplicity = 2

                         Standard orientation:
 ---------------------------------------------------------------------
 Center     Atomic      Atomic             Coordinates (Angstroms)
 Number     Number       Type             X           Y           Z
 ---------------------------------------------------------------------
      1          6           0        4.137568    2.603671   -0.000168
      2          6           0        2.723031    2.625942   -0.000189
      3          6           0        2.004544    1.450914   -0.000117
      4          6           0        2.669330    0.200105   -0.000025
      5          6           0        4.099685    0.173041    0.000005
      6          6           0        4.808895    1.403001   -0.000067
      7          6           0        4.774292   -1.075328    0.000111
      8          6           0        4.071996   -2.260552    0.000188
      9          6           0        2.664357   -2.251819    0.000137
     10          6           0        1.960820   -1.051849    0.000048
     11          6           0        0.544142   -1.063686    0.000018
     12          6           0       -0.672903   -1.054534   -0.000016
     13          6           0       -2.070791   -1.043533   -0.000040
     14          6           0       -3.017413   -2.053530   -0.000293
     15          6           0       -4.286647   -1.426083    0.000010
     16          6           0       -4.027183   -0.080819   -0.000149
     17          8           0       -2.700059    0.178643    0.000065
     18          7           0       -4.918808    1.029443    0.000093
     19          8           0       -6.123908    0.751071   -0.000436
     20          8           0       -4.436203    2.161768    0.000756
     21          1           0        4.690785    3.538215   -0.000229
     22          1           0        2.200219    3.577766   -0.000265
     23          1           0        0.919563    1.469094   -0.000136
     24          1           0        5.895431    1.376455   -0.000041
     25          1           0        5.861074   -1.079965    0.000129
     26          1           0        4.599113   -3.209652    0.000265
     27          1           0        2.114263   -3.187081    0.000192
     28          1           0       -2.804519   -3.112250   -0.000421
     29          1           0       -5.265272   -1.880181    0.000065
 ---------------------------------------------------------------------

 SCF Done:  E(UB3LYP) =  -895.737218819     A.U. after   25 cycles

 The electronic state is 2-A.
 Alpha  occ. eigenvalues --  -19.07681 -18.99085 -18.98873 -14.38131 -10.14104
 Alpha  occ. eigenvalues --  -10.13352 -10.09785 -10.09301 -10.09223 -10.08815
 Alpha  occ. eigenvalues --  -10.08642 -10.08341 -10.08333 -10.07922 -10.07754
 Alpha  occ. eigenvalues --  -10.07600 -10.07543 -10.07317 -10.06770 -10.06557
 Alpha  occ. eigenvalues --   -1.07284  -1.00950  -0.89857  -0.78633  -0.73524
 Alpha  occ. eigenvalues --   -0.70784  -0.70462  -0.69134  -0.65232  -0.65156
 Alpha  occ. eigenvalues --   -0.62740  -0.57746  -0.53940  -0.52393  -0.51635
 Alpha  occ. eigenvalues --   -0.50349  -0.45561  -0.44807  -0.43180  -0.42369
 Alpha  occ. eigenvalues --   -0.40698  -0.39946  -0.39706  -0.37078  -0.35913
 Alpha  occ. eigenvalues --   -0.35657  -0.34307  -0.33674  -0.32972  -0.31918
 Alpha  occ. eigenvalues --   -0.31600  -0.31315  -0.30698  -0.28662  -0.27883
 Alpha  occ. eigenvalues --   -0.25340  -0.25179  -0.24762  -0.22661  -0.19404
 Alpha  occ. eigenvalues --   -0.18518  -0.17720  -0.17098  -0.16418  -0.16052
 Alpha  occ. eigenvalues --   -0.14525  -0.14425  -0.10387  -0.01072
 Alpha virt. eigenvalues --    0.03636   0.06300   0.07052   0.07201   0.07982
 Alpha virt. eigenvalues --    0.08106   0.08811   0.09908   0.10554   0.11508
 Alpha virt. eigenvalues --    0.11609   0.12615   0.12928   0.13276   0.13278

  Beta  occ. eigenvalues --  -19.07451 -18.98723 -18.98510 -14.37783 -10.14002
  Beta  occ. eigenvalues --  -10.13211 -10.09765 -10.09346 -10.09190 -10.08833
  Beta  occ. eigenvalues --  -10.08578 -10.08391 -10.08284 -10.07918 -10.07602
  Beta  occ. eigenvalues --  -10.07568 -10.07392 -10.07274 -10.06709 -10.06483
  Beta  occ. eigenvalues --   -1.06602  -1.00575  -0.89186  -0.78517  -0.73374
  Beta  occ. eigenvalues --   -0.70610  -0.70129  -0.68789  -0.65119  -0.64929
  Beta  occ. eigenvalues --   -0.62463  -0.57209  -0.53716  -0.52345  -0.51523
  Beta  occ. eigenvalues --   -0.50270  -0.45273  -0.44623  -0.42943  -0.42237
  Beta  occ. eigenvalues --   -0.40626  -0.39292  -0.38218  -0.36949  -0.35612
  Beta  occ. eigenvalues --   -0.35406  -0.33624  -0.33094  -0.32914  -0.31838
  Beta  occ. eigenvalues --   -0.31502  -0.31267  -0.30367  -0.28577  -0.27688
  Beta  occ. eigenvalues --   -0.25283  -0.24713  -0.24699  -0.21993  -0.18703
  Beta  occ. eigenvalues --   -0.17866  -0.17652  -0.16057  -0.15703  -0.14676
  Beta  occ. eigenvalues --   -0.14166  -0.13687  -0.09461
  Beta virt. eigenvalues --    0.03320   0.05883   0.06296   0.07188   0.07198
  Beta virt. eigenvalues --    0.08098   0.08801   0.08896   0.09905   0.10543
  Beta virt. eigenvalues --    0.11515   0.12259   0.12649   0.12965   0.13352

 Mulliken charges and spin densities:
               1          2
     1  C   -0.299939  -0.013160
     2  C   -0.374568   0.039323
     3  C   -0.533582  -0.008963
     4  C    0.320530   0.024901
     5  C    0.227431  -0.045063
     6  C   -0.210631   0.053154
     7  C   -0.073204   0.159157
     8  C   -0.330325  -0.031887
     9  C   -0.556797   0.124663
    10  C    0.506062  -0.004949
    11  C    0.481070   0.101672
    12  C    0.446726   0.019984
    13  C   -0.003988   0.073881
    14  C   -1.309432  -0.021978
    15  C    0.823039   0.060914
    16  C   -0.562608   0.056229
    17  O   -0.016902   0.059197
    18  N   -0.375426   0.111083
    19  O   -0.141533   0.133331
    20  O   -0.134045   0.135219
    21  H    0.130899   0.000845
    22  H    0.166060  -0.002688
    23  H    0.068063  -0.001081
    24  H    0.109106  -0.003542
    25  H    0.096041  -0.012619
    26  H    0.140858   0.002110
    27  H    0.093720  -0.008031
    28  H    0.105058   0.000992
    29  H    0.208317  -0.002694
 Sum of Mulliken charges =  -1.00000   1.00000

 Dipole moment (field-independent basis, Debye):
    X=             10.1615    Y=             -3.8351    Z=             -0.0005  Tot=             10.8611
 Quadrupole moment (field-independent basis, Debye-Ang):
   XX=           -213.3504   YY=           -125.8593   ZZ=           -123.7866
   XY=             24.1093   XZ=             -0.0003   YZ=             -0.0034

 Summary of Natural Population Analysis:

                                       Natural Population
                Natural  -----------------------------------------------
    Atom  No    Charge         Core      Valence    Rydberg      Total
 -----------------------------------------------------------------------
      C    1   -0.11760      0.99959     2.10836    0.00965     3.11760
      C    2   -0.09643      0.99959     2.08764    0.00920     3.09643
      C    3   -0.08502      0.99946     2.07737    0.00820     3.08502
      C    4   -0.00414      0.99939     1.99446    0.01029     3.00414
      C    5   -0.04821      0.99953     2.03967    0.00902     3.04821
      C    6   -0.07173      0.99944     2.06356    0.00873     3.07173
      C    7   -0.04821      0.99944     2.03900    0.00977     3.04821
      C    8   -0.12152      0.99959     2.11250    0.00942     3.12152
      C    9   -0.05308      0.99954     2.04525    0.00829     3.05308
      C   10   -0.06968      0.99950     2.05653    0.01366     3.06968
      C   11    0.07776      0.99925     1.91424    0.00876     2.92224
      C   12   -0.04330      0.99927     2.03472    0.00931     3.04330
      C   13    0.13445      0.99944     1.85335    0.01276     2.86555
      C   14   -0.13249      0.99943     2.12370    0.00936     3.13249
      C   15   -0.13736      0.99956     2.12757    0.01023     3.13736
      C   16    0.22221      0.99940     1.76225    0.01613     2.77779
      O   17   -0.19502      0.99984     3.18633    0.00885     4.19502
      N   18    0.25887      0.99969     2.21421    0.02724     3.24113
      O   19   -0.19619      0.99990     3.18850    0.00779     4.19619
      O   20   -0.17891      0.99990     3.17103    0.00797     4.17891
      H   21    0.09593      0.00000     0.40305    0.00102     0.40407
      H   22    0.09841      0.00000     0.40063    0.00096     0.40159
      H   23    0.11169      0.00000     0.38670    0.00161     0.38831
      H   24    0.09376      0.00000     0.40442    0.00182     0.40624
      H   25    0.09494      0.00000     0.40448    0.00058     0.40506
      H   26    0.09624      0.00000     0.40276    0.00100     0.40376
      H   27    0.09865      0.00000     0.40033    0.00102     0.40135
      H   28    0.10463      0.00000     0.39436    0.00101     0.39537
      H   29    0.11407      0.00000     0.38485    0.00108     0.38593
 =======================================================================
   * Total *    0.00272     19.99075    47.78182    0.22472    67.99728

 Normal termination of Gaussian 16 at Mon Dec 14 18:15:24 2020.
