 Gaussian 16, Revision A.03,

 -----------------------------------------------------------
 # opt freq B3LYP/6-31G(d) empiricaldispersion=gd3bj scf=xqc
 -----------------------------------------------------------

 ------------------------------
 CID_81019022_JID_5418_neutraal
 ------------------------------
 Symbolic Z-matrix:
 Charge =  0 Multiplicity = 1

 SCF Done:  E(RB3LYP) =  -605.784233077     A.U. after   12 cycles
 SCF Done:  E(RB3LYP) =  -605.787341968     A.U. after   10 cycles
 SCF Done:  E(RB3LYP) =  -605.787400634     A.U. after   10 cycles
 SCF Done:  E(RB3LYP) =  -605.787889260     A.U. after   10 cycles
 SCF Done:  E(RB3LYP) =  -605.787799542     A.U. after   11 cycles
 SCF Done:  E(RB3LYP) =  -605.787986601     A.U. after   10 cycles
 SCF Done:  E(RB3LYP) =  -605.788047984     A.U. after    9 cycles
 SCF Done:  E(RB3LYP) =  -605.788056396     A.U. after    9 cycles
 SCF Done:  E(RB3LYP) =  -605.788063234     A.U. after    8 cycles
 SCF Done:  E(RB3LYP) =  -605.788065410     A.U. after    9 cycles
 SCF Done:  E(RB3LYP) =  -605.788067102     A.U. after    8 cycles
 SCF Done:  E(RB3LYP) =  -605.788067093     A.U. after    7 cycles
 SCF Done:  E(RB3LYP) =  -605.788067318     A.U. after    8 cycles
 SCF Done:  E(RB3LYP) =  -605.788067307     A.U. after    8 cycles
 SCF Done:  E(RB3LYP) =  -605.788067229     A.U. after    6 cycles
 SCF Done:  E(RB3LYP) =  -605.788067256     A.U. after    5 cycles
 Optimization completed.
    -- Stationary point found.
 Normal termination of Gaussian 16 at Thu Dec 10 16:17:20 2020.

 --------------------------------------------------------------------
 #N Geom=AllCheck Guess=TCheck SCRF=Check GenChk RB3LYP/6-31G(d) Freq
 --------------------------------------------------------------------

 Structure from the checkpoint file:  "JID_5418.chk"
 ------------------------------
 CID_81019022_JID_5418_neutraal
 ------------------------------
 Charge =  0 Multiplicity = 1

 SCF Done:  E(RB3LYP) =  -605.788067256     A.U. after    1 cycles

  Exact polarizability: 165.376  -1.908 146.603  -0.312   1.567 142.798
 Approx polarizability: 208.766   0.242 205.427  -3.474   2.421 208.308

                      1                      2                      3
                      A                      A                      A
 Frequencies --     15.4775                31.1380                51.6732
 Red. masses --      3.0522                 3.0097                 2.9260
 Frc consts  --      0.0004                 0.0017                 0.0046
 IR Inten    --      0.2968                 0.1458                 0.1166

                      4                      5                      6
                      A                      A                      A
 Frequencies --     65.5884                92.8321               119.3895
 Red. masses --      2.1897                 2.3216                 2.7975
 Frc consts  --      0.0055                 0.0118                 0.0235
 IR Inten    --      0.0447                 0.0512                 0.0313

                      7                      8                      9
                      A                      A                      A
 Frequencies --    148.1950               166.5288               177.8705
 Red. masses --      1.9703                 2.2444                 3.5849
 Frc consts  --      0.0255                 0.0367                 0.0668
 IR Inten    --      1.1791                 0.3720                 0.1864

                     10                     11                     12
                      A                      A                      A
 Frequencies --    213.3787               216.8233               230.3455
 Red. masses --      2.3252                 1.2839                 1.5005
 Frc consts  --      0.0624                 0.0356                 0.0469
 IR Inten    --      0.1347                 0.1440                 0.3116

                     13                     14                     15
                      A                      A                      A
 Frequencies --    256.7428               285.9458               304.3725
 Red. masses --      1.1774                 1.9015                 1.7957
 Frc consts  --      0.0457                 0.0916                 0.0980
 IR Inten    --      0.0115                 0.6159                 3.1146

                     16                     17                     18
                      A                      A                      A
 Frequencies --    311.7199               317.9552               344.0733
 Red. masses --      2.5177                 2.0902                 2.5850
 Frc consts  --      0.1441                 0.1245                 0.1803
 IR Inten    --      0.2754                 0.1319                 0.2540

                     19                     20                     21
                      A                      A                      A
 Frequencies --    366.6614               391.4743               417.7313
 Red. masses --      2.2562                 2.1622                 2.2756
 Frc consts  --      0.1787                 0.1952                 0.2340
 IR Inten    --      0.5079                 0.8581                 0.8000

                     22                     23                     24
                      A                      A                      A
 Frequencies --    452.2412               458.8127               506.0286
 Red. masses --      2.1175                 2.5922                 2.2966
 Frc consts  --      0.2552                 0.3215                 0.3465
 IR Inten    --      0.1802                 0.2366                 0.0146

                     25                     26                     27
                      A                      A                      A
 Frequencies --    536.5215               550.9682               631.3193
 Red. masses --      2.2536                 2.5941                 2.2482
 Frc consts  --      0.3822                 0.4640                 0.5279
 IR Inten    --      0.2903                 0.3129                 1.2480

                     28                     29                     30
                      A                      A                      A
 Frequencies --    748.8690               765.6921               787.4568
 Red. masses --      1.4764                 1.5149                 1.3575
 Frc consts  --      0.4878                 0.5233                 0.4960
 IR Inten    --     58.3560                 4.4654                 4.6718

                     31                     32                     33
                      A                      A                      A
 Frequencies --    795.3926               818.5517               834.5333
 Red. masses --      1.4992                 2.0560                 1.6271
 Frc consts  --      0.5588                 0.8116                 0.6676
 IR Inten    --      8.5689                 0.9463                 0.6112

                     34                     35                     36
                      A                      A                      A
 Frequencies --    864.9444               870.5430               884.1311
 Red. masses --      2.3830                 1.5296                 1.8042
 Frc consts  --      1.0504                 0.6830                 0.8309
 IR Inten    --      3.7276                13.0972                 1.6452

                     37                     38                     39
                      A                      A                      A
 Frequencies --    913.9610               926.1039               940.9771
 Red. masses --      1.9970                 1.7299                 1.8037
 Frc consts  --      0.9829                 0.8741                 0.9410
 IR Inten    --      1.6699                 0.4403                 3.8753

                     40                     41                     42
                      A                      A                      A
 Frequencies --    963.2904               987.7962              1021.0655
 Red. masses --      2.2165                 1.7369                 1.5604
 Frc consts  --      1.2118                 0.9985                 0.9585
 IR Inten    --      0.7853                 2.1366                 5.9911

                     43                     44                     45
                      A                      A                      A
 Frequencies --   1029.1278              1030.4281              1038.7377
 Red. masses --      1.8529                 1.8792                 2.1157
 Frc consts  --      1.1562                 1.1756                 1.3450
 IR Inten    --      1.8867                 1.6032                 0.9754

                     46                     47                     48
                      A                      A                      A
 Frequencies --   1050.4307              1060.9389              1081.7638
 Red. masses --      2.4507                 1.5532                 2.3014
 Frc consts  --      1.5932                 1.0301                 1.5868
 IR Inten    --      4.2116                 2.5274                 1.4478

                     49                     50                     51
                      A                      A                      A
 Frequencies --   1092.8116              1097.7662              1112.4061
 Red. masses --      1.7539                 2.0541                 1.7705
 Frc consts  --      1.2341                 1.4584                 1.2908
 IR Inten    --      0.4141                 0.8299                 5.5700

                     52                     53                     54
                      A                      A                      A
 Frequencies --   1116.2148              1137.9562              1156.5674
 Red. masses --      1.3808                 1.9103                 1.7995
 Frc consts  --      1.0136                 1.4575                 1.4182
 IR Inten    --      1.5063                 1.7179                 3.1885

                     55                     56                     57
                      A                      A                      A
 Frequencies --   1175.5845              1186.3780              1188.9706
 Red. masses --      2.4710                 1.9358                 1.9292
 Frc consts  --      2.0120                 1.6053                 1.6068
 IR Inten    --     28.4306                31.3911                 2.9927

                     58                     59                     60
                      A                      A                      A
 Frequencies --   1203.8250              1237.1414              1253.2678
 Red. masses --      2.0311                 1.5719                 1.2084
 Frc consts  --      1.7342                 1.4174                 1.1183
 IR Inten    --      0.5511                 1.9690                 1.1584

                     61                     62                     63
                      A                      A                      A
 Frequencies --   1277.3207              1283.5657              1303.0136
 Red. masses --      1.3023                 1.3162                 1.2497
 Frc consts  --      1.2519                 1.2777                 1.2502
 IR Inten    --      2.5531                 1.1955                 0.5999

                     64                     65                     66
                      A                      A                      A
 Frequencies --   1308.3705              1328.5875              1339.4929
 Red. masses --      1.2245                 1.2185                 1.2823
 Frc consts  --      1.2350                 1.2673                 1.3555
 IR Inten    --      3.3074                 1.1836                 1.8902

                     67                     68                     69
                      A                      A                      A
 Frequencies --   1341.7576              1360.3398              1363.1281
 Red. masses --      1.2939                 1.2139                 1.2298
 Frc consts  --      1.3725                 1.3235                 1.3464
 IR Inten    --      1.1000                 5.5299                 0.2011

                     70                     71                     72
                      A                      A                      A
 Frequencies --   1372.4994              1383.3371              1393.5187
 Red. masses --      1.3826                 1.3743                 1.3108
 Frc consts  --      1.5346                 1.5494                 1.4997
 IR Inten    --      1.1646                 2.0990                 6.4781

                     73                     74                     75
                      A                      A                      A
 Frequencies --   1398.6655              1401.7823              1403.3951
 Red. masses --      1.2983                 1.4819                 1.4550
 Frc consts  --      1.4964                 1.7156                 1.6884
 IR Inten    --     13.1586                 1.2330                 0.8609

                     76                     77                     78
                      A                      A                      A
 Frequencies --   1410.6878              1421.5277              1427.7955
 Red. masses --      1.3898                 1.4018                 1.4258
 Frc consts  --      1.6296                 1.6690                 1.7125
 IR Inten    --      2.8636                 1.2426                 0.8294

                     79                     80                     81
                      A                      A                      A
 Frequencies --   1430.7226              1436.7216              1440.4110
 Red. masses --      1.3796                 1.2649                 1.2272
 Frc consts  --      1.6639                 1.5383                 1.5001
 IR Inten    --      2.3652                 8.4981                 1.5902

                     82                     83                     84
                      A                      A                      A
 Frequencies --   1444.4848              1508.3888              1510.7056
 Red. masses --      1.2274                 1.0691                 1.0801
 Frc consts  --      1.5089                 1.4331                 1.4524
 IR Inten    --      6.3078                 7.4476                 0.4883

                     85                     86                     87
                      A                      A                      A
 Frequencies --   1516.6079              1517.5787              1517.6841
 Red. masses --      1.0993                 1.1085                 1.0823
 Frc consts  --      1.4898                 1.5042                 1.4688
 IR Inten    --      2.6502                11.4312                18.6579

                     88                     89                     90
                      A                      A                      A
 Frequencies --   1523.1623              1527.0847              1528.0785
 Red. masses --      1.0651                 1.0733                 1.0851
 Frc consts  --      1.4559                 1.4747                 1.4929
 IR Inten    --      0.4315                 5.7522                 2.3607

                     91                     92                     93
                      A                      A                      A
 Frequencies --   1528.9121              1532.6351              1535.2728
 Red. masses --      1.0566                 1.0579                 1.0911
 Frc consts  --      1.4552                 1.4641                 1.5152
 IR Inten    --      2.9192                 2.0785                 4.2230

                     94                     95                     96
                      A                      A                      A
 Frequencies --   1536.3682              1539.1471              1544.2777
 Red. masses --      1.0910                 1.0684                 1.0585
 Frc consts  --      1.5173                 1.4912                 1.4873
 IR Inten    --      9.8126                 3.7958                 2.5386

                     97                     98                     99
                      A                      A                      A
 Frequencies --   1551.4416              2976.0327              2991.3588
 Red. masses --      1.0844                 1.0812                 1.0671
 Frc consts  --      1.5378                 5.6422                 5.6261
 IR Inten    --     14.8862                12.7145                50.3150

                    100                    101                    102
                      A                      A                      A
 Frequencies --   3016.1492              3020.0730              3021.6693
 Red. masses --      1.0814                 1.0661                 1.0666
 Frc consts  --      5.7959                 5.7289                 5.7378
 IR Inten    --     21.9230                17.4061                26.2119

                    103                    104                    105
                      A                      A                      A
 Frequencies --   3031.6497              3034.4629              3037.9750
 Red. masses --      1.0626                 1.0666                 1.0625
 Frc consts  --      5.7542                 5.7865                 5.7776
 IR Inten    --     13.5243                41.7771                39.9904

                    106                    107                    108
                      A                      A                      A
 Frequencies --   3039.8245              3041.1205              3041.7683
 Red. masses --      1.0662                 1.0559                 1.0505
 Frc consts  --      5.8050                 5.7536                 5.7267
 IR Inten    --     28.4249                 2.7161                26.5592

                    109                    110                    111
                      A                      A                      A
 Frequencies --   3044.1615              3046.1402              3050.2274
 Red. masses --      1.0600                 1.0408                 1.0715
 Frc consts  --      5.7877                 5.6902                 5.8739
 IR Inten    --     10.7382                18.2283                74.1475

                    112                    113                    114
                      A                      A                      A
 Frequencies --   3055.9244              3063.9293              3070.3372
 Red. masses --      1.0718                 1.0982                 1.0935
 Frc consts  --      5.8970                 6.0740                 6.0734
 IR Inten    --     83.2165                37.6109                62.6972

                    115                    116                    117
                      A                      A                      A
 Frequencies --   3072.1636              3073.2172              3077.6426
 Red. masses --      1.1034                 1.0976                 1.1024
 Frc consts  --      6.1358                 6.1079                 6.1519
 IR Inten    --     19.4710                39.2808                84.6482

                    118                    119                    120
                      A                      A                      A
 Frequencies --   3084.1629              3100.3069              3105.3788
 Red. masses --      1.1028                 1.0942                 1.1015
 Frc consts  --      6.1805                 6.1968                 6.2586
 IR Inten    --     27.2973                34.9869                64.3975

                    121                    122                    123
                      A                      A                      A
 Frequencies --   3106.1213              3107.4785              3120.8379
 Red. masses --      1.1003                 1.1016                 1.1016
 Frc consts  --      6.2546                 6.2676                 6.3213
 IR Inten    --     34.7996                45.0730                54.1313

                    124                    125                    126
                      A                      A                      A
 Frequencies --   3124.9445              3138.9333              3478.1821
 Red. masses --      1.1005                 1.0975                 1.0728
 Frc consts  --      6.3317                 6.3709                 7.6464
 IR Inten    --     67.4551                23.8509                 2.5318

 - Thermochemistry -
 -------------------
 Temperature   298.150 Kelvin.  Pressure   1.00000 Atm.
 Atom     1 has atomic number  6 and mass  12.00000

 Molecular mass:   211.23000 amu.
 Principal axes and moments of inertia in atomic units:
                           1         2         3
     Eigenvalues --  2409.832995541.401255791.43555
           X            0.99996   0.00608  -0.00698
           Y           -0.00611   0.99997  -0.00513
           Z            0.00695   0.00517   0.99996
 This molecule is an asymmetric top.
 Rotational symmetry number  1.
 Warning -- assumption of classical behavior for rotation
           may cause significant error
 Rotational temperatures (Kelvin)      0.03594     0.01563     0.01496
 Rotational constants (GHZ):           0.74891     0.32568     0.31162
 Zero-point vibrational energy    1096952.1 (Joules/Mol)
                                  262.17786 (Kcal/Mol)
 Warning -- explicit consideration of  26 degrees of freedom as
           vibrations may cause significant error
 Vibrational temperatures:     22.27    44.80    74.35    94.37   133.56
          (Kelvin)            171.77   213.22   239.60   255.92   307.00
                              311.96   331.42   369.40   411.41   437.92
                              448.50   457.47   495.04   527.54   563.24
                              601.02   650.67   660.13   728.06   771.93
                              792.72   908.33  1077.46  1101.66  1132.97
                             1144.39  1177.71  1200.71  1244.46  1252.52
                             1272.07  1314.99  1332.46  1353.86  1385.96
                             1421.22  1469.09  1480.69  1482.56  1494.51
                             1511.34  1526.45  1556.42  1572.31  1579.44
                             1600.50  1605.98  1637.27  1664.04  1691.40
                             1706.93  1710.66  1732.04  1779.97  1803.17
                             1837.78  1846.76  1874.75  1882.45  1911.54
                             1927.23  1930.49  1957.23  1961.24  1974.72
                             1990.31  2004.96  2012.37  2016.85  2019.17
                             2029.67  2045.26  2054.28  2058.49  2067.12
                             2072.43  2078.29  2170.24  2173.57  2182.06
                             2183.46  2183.61  2191.49  2197.13  2198.56
                             2199.76  2205.12  2208.92  2210.49  2214.49
                             2221.87  2232.18  4281.85  4303.90  4339.57
                             4345.21  4347.51  4361.87  4365.92  4370.97
                             4373.63  4375.49  4376.43  4379.87  4382.72
                             4388.60  4396.79  4408.31  4417.53  4420.16
                             4421.67  4428.04  4437.42  4460.65  4467.95
                             4469.02  4470.97  4490.19  4496.10  4516.22
                             5004.33

 Zero-point correction=                           0.417807 (Hartree/Particle)
 Thermal correction to Energy=                    0.435275
 Thermal correction to Enthalpy=                  0.436220
 Thermal correction to Gibbs Free Energy=         0.371635
 Sum of electronic and zero-point Energies=           -605.370260
 Sum of electronic and thermal Energies=              -605.352792
 Sum of electronic and thermal Enthalpies=            -605.351848
 Sum of electronic and thermal Free Energies=         -605.416432

                     E (Thermal)             CV                S
                      KCal/Mol        Cal/Mol-Kelvin    Cal/Mol-Kelvin
 Total                  273.139             67.024            135.930
 Electronic               0.000              0.000              0.000
 Translational            0.889              2.981             41.947
 Rotational               0.889              2.981             32.714
 Vibrational            271.362             61.063             61.269
 Vibration     1          0.593              1.986              7.143
 Vibration     2          0.594              1.983              5.756
 Vibration     3          0.596              1.977              4.752
 Vibration     4          0.597              1.971              4.282
 Vibration     5          0.602              1.954              3.599
 Vibration     6          0.609              1.933              3.110
 Vibration     7          0.618              1.905              2.695
 Vibration     8          0.624              1.884              2.474
 Vibration     9          0.628              1.870              2.351
 Vibration    10          0.644              1.821              2.015
 Vibration    11          0.646              1.815              1.985
 Vibration    12          0.652              1.795              1.876
 Vibration    13          0.666              1.751              1.684
 Vibration    14          0.684              1.700              1.498
 Vibration    15          0.695              1.665              1.393
 Vibration    16          0.700              1.651              1.353
 Vibration    17          0.704              1.639              1.321
 Vibration    18          0.723              1.587              1.193
 Vibration    19          0.740              1.541              1.094
 Vibration    20          0.759              1.488              0.995
 Vibration    21          0.781              1.432              0.900
 Vibration    22          0.811              1.356              0.789
 Vibration    23          0.817              1.341              0.770
 Vibration    24          0.861              1.237              0.643
 Vibration    25          0.892              1.169              0.573
 Vibration    26          0.906              1.138              0.542

 Optimization completed.
    -- Stationary point found.
 Normal termination of Gaussian 16 at Thu Dec 10 16:34:29 2020.

 ----------------------------------------------------------------------
 # B3LYP/6-311++G(d,p) empiricaldispersion=gd3bj scf=xqc pop=npa geom=c
 heck
 ----------------------------------------------------------------------

 --------------------------------------
 CID_81019022_JID_5418_Energie_neutraal
 --------------------------------------
 Structure from the checkpoint file:  "JID_5418.chk"
 Charge =  0 Multiplicity = 1

 SCF Done:  E(RB3LYP) =  -605.957168910     A.U. after   13 cycles
 Normal termination of Gaussian 16 at Thu Dec 10 16:50:51 2020.

 ----------------------------------------------------------------------
 # B3LYP/6-311++G(d,p) empiricaldispersion=gd3bj scf=xqc pop=npa geom=c
 heck
 ----------------------------------------------------------------------

 ------------------------------------
 CID_81019022_JID_5418_Energie_kation
 ------------------------------------
 Structure from the checkpoint file:  "JID_5418.chk"
 Charge =  1 Multiplicity = 2

 SCF Done:  E(UB3LYP) =  -605.655785809     A.U. after   23 cycles
 Normal termination of Gaussian 16 at Thu Dec 10 17:24:33 2020.
 Gaussian 16:  ES64L-G16RevA.03 25-Dec-2016

 ----------------------------------------------------------------------
 # B3LYP/6-311++G(d,p) empiricaldispersion=gd3bj scf=xqc pop=npa geom=c
 heck
 ----------------------------------------------------------------------

 -----------------------------------
 CID_81019022_JID_5418_Energie_anion
 -----------------------------------
 Structure from the checkpoint file:  "JID_5418.chk"
 Charge = -1 Multiplicity = 2

                         Standard orientation:
 ---------------------------------------------------------------------
 Center     Atomic      Atomic             Coordinates (Angstroms)
 Number     Number       Type             X           Y           Z
 ---------------------------------------------------------------------
      1          6           0        1.166839    2.488210    1.642734
      2          6           0        1.610040    1.030992    1.471092
      3          6           0        2.114415    0.678447    0.045179
      4          6           0        3.423603   -0.135425    0.097781
      5          6           0        3.210761   -1.548201    0.650045
      6          6           0        2.162694   -2.291497   -0.182626
      7          6           0        0.851133   -1.500702   -0.279603
      8          6           0        1.068544   -0.075627   -0.826990
      9          6           0       -0.243602    0.723818   -1.041805
     10          6           0        0.020325    2.036251   -1.797223
     11          6           0       -1.337307   -0.081728   -1.792178
     12          6           0       -2.371659   -0.754617   -0.884586
     13          7           0       -3.273301    0.243787   -0.306957
     14          6           0       -4.207442   -0.281826    0.687712
     15          6           0       -3.587798   -0.789064    1.999047
     16          1           0        1.979278    3.176878    1.380530
     17          1           0        0.879300    2.692982    2.680563
     18          1           0        0.310566    2.734813    1.007089
     19          1           0        2.412828    0.832737    2.192989
     20          1           0        0.786496    0.368743    1.764066
     21          1           0        2.357250    1.621534   -0.459128
     22          1           0        3.838123   -0.210761   -0.917931
     23          1           0        4.165363    0.405654    0.699498
     24          1           0        2.874498   -1.491179    1.694849
     25          1           0        4.158499   -2.100750    0.657458
     26          1           0        1.969523   -3.286582    0.237456
     27          1           0        2.558414   -2.450509   -1.196644
     28          1           0        0.381670   -1.453289    0.712801
     29          1           0        0.153169   -2.048259   -0.920014
     30          1           0        1.523674   -0.192377   -1.825223
     31          1           0       -0.637376    0.980488   -0.047462
     32          1           0        0.388120    1.825153   -2.809629
     33          1           0       -0.905199    2.614290   -1.896553
     34          1           0        0.757973    2.673068   -1.302419
     35          1           0       -1.891213    0.589878   -2.458651
     36          1           0       -0.865956   -0.833852   -2.437007
     37          1           0       -2.987139   -1.443754   -1.478629
     38          1           0       -1.858307   -1.367931   -0.126355
     39          1           0       -2.721514    0.985968    0.121721
     40          1           0       -4.930608    0.511880    0.915049
     41          1           0       -4.776005   -1.090426    0.209831
     42          1           0       -3.027176    0.012185    2.497453
     43          1           0       -4.365085   -1.133436    2.691546
     44          1           0       -2.899332   -1.623830    1.829972
 ---------------------------------------------------------------------

 SCF Done:  E(UB3LYP) =  -605.941728993     A.U. after   30 cycles

 The electronic state is 2-A.
 Alpha  occ. eigenvalues --  -14.20053 -10.09760 -10.09458 -10.08152 -10.07632
 Alpha  occ. eigenvalues --  -10.07316 -10.07167 -10.06770 -10.06670 -10.06618
 Alpha  occ. eigenvalues --  -10.06572 -10.06509 -10.06487 -10.06223 -10.06199
 Alpha  occ. eigenvalues --   -0.81116  -0.75055  -0.70584  -0.67886  -0.65574
 Alpha  occ. eigenvalues --   -0.63583  -0.62208  -0.61053  -0.54598  -0.52764
 Alpha  occ. eigenvalues --   -0.51965  -0.50664  -0.49773  -0.46737  -0.43797
 Alpha  occ. eigenvalues --   -0.39971  -0.39239  -0.36955  -0.36686  -0.35590
 Alpha  occ. eigenvalues --   -0.34499  -0.33691  -0.32801  -0.32527  -0.32350
 Alpha  occ. eigenvalues --   -0.31605  -0.30776  -0.30595  -0.29156  -0.28360
 Alpha  occ. eigenvalues --   -0.27893  -0.27435  -0.26418  -0.25736  -0.25000
 Alpha  occ. eigenvalues --   -0.24959  -0.24590  -0.23798  -0.23533  -0.23388
 Alpha  occ. eigenvalues --   -0.22732  -0.20751  -0.19591  -0.19262  -0.13116
 Alpha  occ. eigenvalues --    0.04298
 Alpha virt. eigenvalues --    0.06030   0.06430   0.06817   0.07770   0.08105
 Alpha virt. eigenvalues --    0.08491   0.08783   0.09038   0.09956   0.10069
 Alpha virt. eigenvalues --    0.10438   0.11110   0.11486   0.11850   0.11944

  Beta  occ. eigenvalues --  -14.20047 -10.09746 -10.09448 -10.08146 -10.07629
  Beta  occ. eigenvalues --  -10.07312 -10.07162 -10.06760 -10.06656 -10.06601
  Beta  occ. eigenvalues --  -10.06559 -10.06500 -10.06472 -10.06196 -10.06163
  Beta  occ. eigenvalues --   -0.81100  -0.75037  -0.70566  -0.67861  -0.65545
  Beta  occ. eigenvalues --   -0.63556  -0.62175  -0.61022  -0.54565  -0.52711
  Beta  occ. eigenvalues --   -0.51920  -0.50619  -0.49730  -0.46705  -0.43762
  Beta  occ. eigenvalues --   -0.39942  -0.39218  -0.36923  -0.36662  -0.35569
  Beta  occ. eigenvalues --   -0.34475  -0.33669  -0.32772  -0.32507  -0.32323
  Beta  occ. eigenvalues --   -0.31566  -0.30749  -0.30561  -0.29125  -0.28333
  Beta  occ. eigenvalues --   -0.27867  -0.27411  -0.26383  -0.25704  -0.24977
  Beta  occ. eigenvalues --   -0.24929  -0.24565  -0.23778  -0.23505  -0.23365
  Beta  occ. eigenvalues --   -0.22707  -0.20729  -0.19569  -0.19242  -0.13104
  Beta virt. eigenvalues --    0.06205   0.06739   0.07020   0.07169   0.08214
  Beta virt. eigenvalues --    0.08507   0.08750   0.09089   0.09300   0.10309
  Beta virt. eigenvalues --    0.10381   0.10706   0.11371   0.11587   0.12105

 Mulliken charges and spin densities:
               1          2
     1  C    0.688400  -1.375229
     2  C   -0.961967   0.684474
     3  C   -0.309001   0.706808
     4  C    0.661292  -1.298808
     5  C   -0.172685  -0.089912
     6  C    0.371216  -1.109765
     7  C   -0.671979   0.506015
     8  C    0.211924  -0.307324
     9  C    0.142246   0.437328
    10  C    0.017153  -0.640231
    11  C    0.760722  -1.112789
    12  C   -1.299076   0.657984
    13  N    0.044929  -0.067941
    14  C   -0.516149   0.242851
    15  C    0.861508  -1.258697
    16  H   -0.058777   0.202458
    17  H   -0.313375   0.457767
    18  H   -0.305218   0.460189
    19  H   -0.125429   0.293375
    20  H   -0.005887   0.159411
    21  H    0.042089   0.145306
    22  H   -0.075718   0.187820
    23  H   -0.169325   0.341324
    24  H   -0.018821   0.136498
    25  H   -0.282581   0.467031
    26  H   -0.416017   0.595458
    27  H    0.033401   0.088623
    28  H    0.306661  -0.159650
    29  H   -0.059831   0.204592
    30  H    0.117185   0.075933
    31  H    0.734149  -0.818709
    32  H    0.069980   0.077414
    33  H   -0.040481   0.183564
    34  H    0.145726  -0.018203
    35  H    0.225632  -0.049152
    36  H    0.095141   0.068363
    37  H   -0.156342   0.322505
    38  H    0.333824  -0.226726
    39  H    0.107933   0.130481
    40  H   -0.237532   0.401405
    41  H    0.088989   0.020954
    42  H   -0.009114   0.138227
    43  H   -0.388125   0.535536
    44  H   -0.466670   0.603442
 Sum of Mulliken charges =  -1.00000   1.00000

 Dipole moment (field-independent basis, Debye):
    X=              0.2747    Y=              1.1088    Z=             -4.8589  Tot=              4.9914
 Quadrupole moment (field-independent basis, Debye-Ang):
   XX=           -182.9778   YY=           -153.7239   ZZ=           -146.1460
   XY=              2.5948   XZ=              5.0110   YZ=             -0.7207

 Summary of Natural Population Analysis:

                                       Natural Population
                Natural  -----------------------------------------------
    Atom  No    Charge         Core      Valence    Rydberg      Total
 -----------------------------------------------------------------------
      C    1   -0.28186      0.99966     2.27689    0.00530     3.28186
      C    2   -0.19494      0.99961     2.18650    0.00883     3.19494
      C    3   -0.11011      0.99957     2.09876    0.01178     3.11011
      C    4   -0.18333      0.99961     2.17425    0.00946     3.18333
      C    5   -0.19148      0.99962     2.18395    0.00790     3.19148
      C    6   -0.18608      0.99963     2.17782    0.00863     3.18608
      C    7   -0.19359      0.99960     2.18454    0.00944     3.19359
      C    8   -0.09828      0.99956     2.08839    0.01033     3.09828
      C    9   -0.11662      0.99958     2.10707    0.00997     3.11662
      C   10   -0.28240      0.99965     2.27780    0.00495     3.28240
      C   11   -0.19125      0.99961     2.18306    0.00857     3.19125
      C   12   -0.08731      0.99961     2.07758    0.01012     3.08731
      N   13   -0.34063      0.99975     2.82995    0.01093     3.84063
      C   14   -0.08658      0.99965     2.07531    0.01162     3.08658
      C   15   -0.29737      0.99967     2.29301    0.00469     3.29737
      H   16    0.09438      0.00000     0.40452    0.00110     0.40562
      H   17    0.09970      0.00000     0.39938    0.00092     0.40030
      H   18    0.09500      0.00000     0.40375    0.00125     0.40500
      H   19    0.09675      0.00000     0.40196    0.00129     0.40325
      H   20    0.09624      0.00000     0.40189    0.00187     0.40376
      H   21    0.09696      0.00000     0.40139    0.00165     0.40304
      H   22    0.09318      0.00000     0.40565    0.00117     0.40682
      H   23    0.09870      0.00000     0.40022    0.00108     0.40130
      H   24    0.09440      0.00000     0.40413    0.00147     0.40560
      H   25    0.09836      0.00000     0.40051    0.00113     0.40164
      H   26    0.09952      0.00000     0.39939    0.00109     0.40048
      H   27    0.09059      0.00000     0.40819    0.00121     0.40941
      H   28    0.09550      0.00000     0.40260    0.00190     0.40450
      H   29    0.09999      0.00000     0.39882    0.00119     0.40001
      H   30    0.09257      0.00000     0.40573    0.00170     0.40743
      H   31    0.09225      0.00000     0.40499    0.00276     0.40775
      H   32    0.09544      0.00000     0.40369    0.00088     0.40456
      H   33    0.09897      0.00000     0.40016    0.00087     0.40103
      H   34    0.10038      0.00000     0.39878    0.00084     0.39962
      H   35    0.10021      0.00000     0.39841    0.00138     0.39979
      H   36    0.09897      0.00000     0.40014    0.00089     0.40103
      H   37    0.08894      0.00000     0.40986    0.00120     0.41106
      H   38    0.08367      0.00000     0.41421    0.00211     0.41633
      H   39    0.16820      0.00000     0.32829    0.00351     0.33180
      H   40    0.09059      0.00000     0.40843    0.00098     0.40941
      H   41    0.08729      0.00000     0.41154    0.00117     0.41271
      H   42    0.09731      0.00000     0.40115    0.00153     0.40269
      H   43    0.09991      0.00000     0.39872    0.00137     0.40009
      H   44    0.09783      0.00000     0.40083    0.00134     0.40217
 =======================================================================
   * Total *    0.00000     14.99440    44.83223    0.17337    60.00000

 Normal termination of Gaussian 16 at Thu Dec 10 17:54:25 2020.
