 Gaussian 16, Revision A.03,

 -----------------------------------------------------------
 # opt freq B3LYP/6-31G(d) empiricaldispersion=gd3bj scf=xqc
 -----------------------------------------------------------

 ------------------------------
 CID_54942781_JID_7437_neutraal
 ------------------------------
 Symbolic Z-matrix:
 Charge =  0 Multiplicity = 1

 SCF Done:  E(RB3LYP) =  -1100.40144901     A.U. after   15 cycles
 SCF Done:  E(RB3LYP) =  -1100.40505398     A.U. after   13 cycles
 SCF Done:  E(RB3LYP) =  -1100.40427170     A.U. after   13 cycles
 SCF Done:  E(RB3LYP) =  -1100.40741651     A.U. after   12 cycles
 SCF Done:  E(RB3LYP) =  -1100.40805637     A.U. after   12 cycles
 SCF Done:  E(RB3LYP) =  -1100.40860016     A.U. after   12 cycles
 SCF Done:  E(RB3LYP) =  -1100.40911007     A.U. after   12 cycles
 SCF Done:  E(RB3LYP) =  -1100.40936168     A.U. after   12 cycles
 SCF Done:  E(RB3LYP) =  -1100.40952397     A.U. after   12 cycles
 SCF Done:  E(RB3LYP) =  -1100.40968836     A.U. after   11 cycles
 SCF Done:  E(RB3LYP) =  -1100.40971382     A.U. after    8 cycles
 SCF Done:  E(RB3LYP) =  -1100.40971425     A.U. after    8 cycles
 SCF Done:  E(RB3LYP) =  -1100.40971447     A.U. after    8 cycles
 SCF Done:  E(RB3LYP) =  -1100.40971461     A.U. after    8 cycles
 SCF Done:  E(RB3LYP) =  -1100.40971464     A.U. after    7 cycles
 Optimization completed.
    -- Stationary point found.
 Normal termination of Gaussian 16 at Fri Dec 11 12:13:45 2020.

 --------------------------------------------------------------------
 #N Geom=AllCheck Guess=TCheck SCRF=Check GenChk RB3LYP/6-31G(d) Freq
 --------------------------------------------------------------------

 Structure from the checkpoint file:  "JID_7437.chk"
 ------------------------------
 CID_54942781_JID_7437_neutraal
 ------------------------------
 Charge =  0 Multiplicity = 1

 SCF Done:  E(RB3LYP) =  -1100.40971464     A.U. after    1 cycles

  Exact polarizability: 159.485  -5.314 177.790  32.427  -9.716 114.212
 Approx polarizability: 254.399 -17.830 317.575  78.228 -19.419 209.712

                      1                      2                      3
                      A                      A                      A
 Frequencies --     34.4343                43.4460                54.9210
 Red. masses --      6.9193                 6.7645                 4.4522
 Frc consts  --      0.0048                 0.0075                 0.0079
 IR Inten    --      0.9261                 0.6337                 1.9161

                      4                      5                      6
                      A                      A                      A
 Frequencies --     93.8573               128.1667               148.7373
 Red. masses --      8.3160                 5.5691                 4.9519
 Frc consts  --      0.0432                 0.0539                 0.0645
 IR Inten    --      5.4742                 0.7197                 1.2125

                      7                      8                      9
                      A                      A                      A
 Frequencies --    203.6605               225.0769               286.7717
 Red. masses --      5.2221                 5.3589                 7.2684
 Frc consts  --      0.1276                 0.1600                 0.3522
 IR Inten    --      3.1480                 2.1894                 1.7535

                     10                     11                     12
                      A                      A                      A
 Frequencies --    321.4270               369.9229               387.7744
 Red. masses --      9.2468                 6.2837                 6.3676
 Frc consts  --      0.5629                 0.5066                 0.5641
 IR Inten    --      3.7061                 0.8301                 0.7632

                     13                     14                     15
                      A                      A                      A
 Frequencies --    431.4326               471.1276               486.6193
 Red. masses --      3.4655                 6.0699                 3.8253
 Frc consts  --      0.3801                 0.7938                 0.5337
 IR Inten    --      2.6468                 1.4628                 5.0131

                     16                     17                     18
                      A                      A                      A
 Frequencies --    491.3796               511.7431               535.8661
 Red. masses --      1.7210                 7.4873                 5.1674
 Frc consts  --      0.2448                 1.1553                 0.8743
 IR Inten    --     56.5590                 4.1538                15.6995

                     19                     20                     21
                      A                      A                      A
 Frequencies --    568.5546               601.2151               647.0809
 Red. masses --      4.3281                 1.8764                 2.5330
 Frc consts  --      0.8243                 0.3996                 0.6249
 IR Inten    --     15.5171                47.3176                 5.4273

                     22                     23                     24
                      A                      A                      A
 Frequencies --    662.0134               695.2098               719.3379
 Red. masses --      3.3812                 3.0966                 5.0275
 Frc consts  --      0.8731                 0.8818                 1.5327
 IR Inten    --     19.8964                54.2702                13.3917

                     25                     26                     27
                      A                      A                      A
 Frequencies --    739.5085               756.0180               770.3236
 Red. masses --      4.6405                 1.6315                 3.8412
 Frc consts  --      1.4952                 0.5494                 1.3430
 IR Inten    --     22.4416                14.8822                 3.1284

                     28                     29                     30
                      A                      A                      A
 Frequencies --    779.0227               783.4893               822.6692
 Red. masses --      2.1510                 1.5035                 2.1192
 Frc consts  --      0.7691                 0.5438                 0.8451
 IR Inten    --     53.4667                 9.8776                10.7360

                     31                     32                     33
                      A                      A                      A
 Frequencies --    841.4862               858.3524               869.2000
 Red. masses --      2.4574                 2.0580                 1.6711
 Frc consts  --      1.0252                 0.8934                 0.7439
 IR Inten    --     17.5369                29.5951                 9.2590

                     34                     35                     36
                      A                      A                      A
 Frequencies --    873.0295               946.9564               951.0620
 Red. masses --      1.9949                 1.3426                 5.9228
 Frc consts  --      0.8959                 0.7093                 3.1564
 IR Inten    --      7.2176                 1.5986                19.4064

                     37                     38                     39
                      A                      A                      A
 Frequencies --    985.8442              1017.0031              1038.7421
 Red. masses --      1.2600                 5.2935                 2.1285
 Frc consts  --      0.7215                 3.2258                 1.3531
 IR Inten    --      0.1121                 4.1172                33.6055

                     40                     41                     42
                      A                      A                      A
 Frequencies --   1057.4044              1080.1823              1095.9804
 Red. masses --      2.3336                 3.5177                 3.3107
 Frc consts  --      1.5373                 2.4183                 2.3430
 IR Inten    --      5.3984                13.3582                 2.8323

                     43                     44                     45
                      A                      A                      A
 Frequencies --   1167.6690              1170.5618              1183.6045
 Red. masses --      1.6124                 1.7654                 1.3182
 Frc consts  --      1.2953                 1.4252                 1.0880
 IR Inten    --      6.0473                 6.8220                 3.3600

                     46                     47                     48
                      A                      A                      A
 Frequencies --   1205.3918              1238.8350              1294.5279
 Red. masses --      1.2672                 1.7203                 1.7148
 Frc consts  --      1.0848                 1.5555                 1.6931
 IR Inten    --      0.6311                10.8252                55.5851

                     49                     50                     51
                      A                      A                      A
 Frequencies --   1331.7025              1350.9309              1365.9477
 Red. masses --      3.1372                 2.1114                 2.9398
 Frc consts  --      3.2780                 2.2703                 3.2318
 IR Inten    --    142.6329                18.3065                 3.4818

                     52                     53                     54
                      A                      A                      A
 Frequencies --   1370.7432              1392.5190              1430.2060
 Red. masses --      6.6973                 4.1631                 5.3078
 Frc consts  --      7.4141                 4.7563                 6.3968
 IR Inten    --      2.1722                81.2825                19.9841

                     55                     56                     57
                      A                      A                      A
 Frequencies --   1475.6104              1477.5930              1507.3689
 Red. masses --      2.0461                 2.3489                 2.6529
 Frc consts  --      2.6249                 3.0215                 3.5515
 IR Inten    --      8.0071                51.5272                 9.5904

                     58                     59                     60
                      A                      A                      A
 Frequencies --   1532.6555              1570.6863              1616.7430
 Red. masses --      2.4409                 5.8895                 6.0884
 Frc consts  --      3.3782                 8.5607                 9.3764
 IR Inten    --     13.7348                78.1819                 6.1066

                     61                     62                     63
                      A                      A                      A
 Frequencies --   1636.7359              1655.4407              1769.9471
 Red. masses --      5.0102                 5.8234                 8.7807
 Frc consts  --      7.9079                 9.4028                16.2069
 IR Inten    --     21.1816                 0.8455               402.5540

                     64                     65                     66
                      A                      A                      A
 Frequencies --   3192.0860              3203.3652              3214.2298
 Red. masses --      1.0859                 1.0904                 1.0958
 Frc consts  --      6.5190                 6.5927                 6.6698
 IR Inten    --      0.6433                10.1072                23.2445

                     67                     68                     69
                      A                      A                      A
 Frequencies --   3234.7936              3259.7819              3274.2830
 Red. masses --      1.0930                 1.0966                 1.0937
 Frc consts  --      6.7385                 6.8654                 6.9086
 IR Inten    --      6.2598                 2.8877                 4.0390

                     70                     71                     72
                      A                      A                      A
 Frequencies --   3299.4387              3570.0980              3670.5666
 Red. masses --      1.0987                 1.0751                 1.0818
 Frc consts  --      7.0470                 8.0735                 8.5878
 IR Inten    --      0.0783                36.9333                78.8382

 - Thermochemistry -
 -------------------
 Temperature   298.150 Kelvin.  Pressure   1.00000 Atm.
 Atom     1 has atomic number  6 and mass  12.00000

 Molecular mass:   243.04663 amu.
 Principal axes and moments of inertia in atomic units:
                           1         2         3
     Eigenvalues --  3053.577794554.416316055.37438
           X            0.99969   0.02490   0.00136
           Y           -0.02487   0.99954  -0.01726
           Z           -0.00179   0.01722   0.99985
 This molecule is an asymmetric top.
 Rotational symmetry number  1.
 Warning -- assumption of classical behavior for rotation
           may cause significant error
 Rotational temperatures (Kelvin)      0.02836     0.01902     0.01430
 Rotational constants (GHZ):           0.59103     0.39626     0.29804
 Zero-point vibrational energy     508712.6 (Joules/Mol)
                                  121.58524 (Kcal/Mol)
 Warning -- explicit consideration of  20 degrees of freedom as
           vibrations may cause significant error
 Vibrational temperatures:     49.54    62.51    79.02   135.04   184.40
          (Kelvin)            214.00   293.02   323.84   412.60   462.46
                              532.24   557.92   620.74   677.85   700.14
                              706.99   736.28   770.99   818.02   865.01
                              931.01   952.49  1000.25  1034.97  1063.99
                             1087.74  1108.32  1120.84  1127.27  1183.64
                             1210.71  1234.98  1250.58  1256.09  1362.46
                             1368.37  1418.41  1463.24  1494.52  1521.37
                             1554.14  1576.87  1680.02  1684.18  1702.94
                             1734.29  1782.41  1862.54  1916.02  1943.69
                             1965.29  1972.19  2003.52  2057.75  2123.07
                             2125.93  2168.77  2205.15  2259.87  2326.13
                             2354.90  2381.81  2546.56  4592.70  4608.93
                             4624.56  4654.15  4690.10  4710.96  4747.16
                             5136.57  5281.13

 Zero-point correction=                           0.193758 (Hartree/Particle)
 Thermal correction to Energy=                    0.207230
 Thermal correction to Enthalpy=                  0.208174
 Thermal correction to Gibbs Free Energy=         0.152009
 Sum of electronic and zero-point Energies=          -1100.215956
 Sum of electronic and thermal Energies=             -1100.202485
 Sum of electronic and thermal Enthalpies=           -1100.201541
 Sum of electronic and thermal Free Energies=        -1100.257706

                     E (Thermal)             CV                S
                      KCal/Mol        Cal/Mol-Kelvin    Cal/Mol-Kelvin
 Total                  130.039             52.611            118.209
 Electronic               0.000              0.000              0.000
 Translational            0.889              2.981             42.365
 Rotational               0.889              2.981             32.799
 Vibrational            128.261             46.650             43.046
 Vibration     1          0.594              1.983              5.556
 Vibration     2          0.595              1.980              5.095
 Vibration     3          0.596              1.976              4.632
 Vibration     4          0.603              1.954              3.578
 Vibration     5          0.611              1.925              2.973
 Vibration     6          0.618              1.904              2.688
 Vibration     7          0.639              1.835              2.100
 Vibration     8          0.650              1.803              1.918
 Vibration     9          0.684              1.698              1.493
 Vibration    10          0.707              1.632              1.303
 Vibration    11          0.742              1.534              1.080
 Vibration    12          0.756              1.496              1.009
 Vibration    13          0.792              1.402              0.854
 Vibration    14          0.828              1.314              0.734
 Vibration    15          0.843              1.280              0.692
 Vibration    16          0.847              1.269              0.680
 Vibration    17          0.867              1.224              0.629
 Vibration    18          0.891              1.171              0.574
 Vibration    19          0.925              1.099              0.507
 Vibration    20          0.959              1.029              0.448

 Optimization completed.
    -- Stationary point found.
 Normal termination of Gaussian 16 at Fri Dec 11 12:23:42 2020.

 ----------------------------------------------------------------------
 # B3LYP/6-311++G(d,p) empiricaldispersion=gd3bj scf=xqc pop=npa geom=c
 heck
 ----------------------------------------------------------------------

 --------------------------------------
 CID_54942781_JID_7437_Energie_neutraal
 --------------------------------------
 Structure from the checkpoint file:  "JID_7437.chk"
 Charge =  0 Multiplicity = 1

 SCF Done:  E(RB3LYP) =  -1100.62651768     A.U. after   16 cycles
 Normal termination of Gaussian 16 at Fri Dec 11 12:27:31 2020.

 ----------------------------------------------------------------------
 # B3LYP/6-311++G(d,p) empiricaldispersion=gd3bj scf=xqc pop=npa geom=c
 heck
 ----------------------------------------------------------------------

 ------------------------------------
 CID_54942781_JID_7437_Energie_kation
 ------------------------------------
 Structure from the checkpoint file:  "JID_7437.chk"
 Charge =  1 Multiplicity = 2

 SCF Done:  E(UB3LYP) =  -1100.33005995     A.U. after   29 cycles
 Normal termination of Gaussian 16 at Fri Dec 11 12:37:59 2020.
 Gaussian 16:  ES64L-G16RevA.03 25-Dec-2016

 ----------------------------------------------------------------------
 # B3LYP/6-311++G(d,p) empiricaldispersion=gd3bj scf=xqc pop=npa geom=c
 heck
 ----------------------------------------------------------------------

 -----------------------------------
 CID_54942781_JID_7437_Energie_anion
 -----------------------------------
 Structure from the checkpoint file:  "JID_7437.chk"
 Charge = -1 Multiplicity = 2

                         Standard orientation:
 ---------------------------------------------------------------------
 Center     Atomic      Atomic             Coordinates (Angstroms)
 Number     Number       Type             X           Y           Z
 ---------------------------------------------------------------------
      1          6           0       -0.830792   -2.352121    1.388990
      2          6           0       -2.019475   -2.679445    0.713316
      3          6           0       -2.671652   -1.735392   -0.070062
      4          6           0       -2.110260   -0.459810   -0.174361
      5          6           0       -0.903746   -0.115271    0.482934
      6          6           0       -0.274629   -1.086047    1.282552
      7          6           0       -0.531818    1.263353    0.224428
      8          6           0       -1.441395    1.909421   -0.559609
      9         16           0       -2.763844    0.903095   -1.075781
     10          6           0        0.649013    2.012548    0.746424
     11          8           0        0.558194    3.164576    1.151585
     12          7           0        1.867014    1.357079    0.760682
     13          6           0        2.264928    0.273913   -0.045407
     14          6           0        1.830158   -0.066015   -1.316849
     15          7           0        2.496362   -1.205237   -1.637537
     16          7           0        3.349878   -1.622049   -0.680469
     17          6           0        3.206174   -0.728259    0.296819
     18          1           0       -0.340445   -3.101121    2.003413
     19          1           0       -2.437192   -3.677234    0.809398
     20          1           0       -3.597081   -1.978722   -0.583069
     21          1           0        0.640380   -0.841072    1.808510
     22          1           0       -1.394358    2.947028   -0.861016
     23          1           0        2.601781    1.937463    1.150688
     24          1           0        1.102749    0.389639   -1.970179
     25          1           0        2.407721   -1.751336   -2.480754
     26          1           0        3.780587   -0.820567    1.209036
 ---------------------------------------------------------------------

 SCF Done:  E(UB3LYP) =  -1100.62785691     A.U. after   33 cycles
 SCF Done:  E(UB3LYP) =  -1100.62785691     a.u. after    1 cycles

 The electronic state is 2-A.
 Alpha  occ. eigenvalues --  -88.73643 -18.96103 -14.28440 -14.22996 -14.22793
 Alpha  occ. eigenvalues --  -10.14476 -10.10300 -10.10150 -10.08816 -10.07714
 Alpha  occ. eigenvalues --  -10.05542 -10.05248 -10.05017 -10.04691 -10.04564
 Alpha  occ. eigenvalues --  -10.04251 -10.03866  -7.82300  -5.78610  -5.78257
 Alpha  occ. eigenvalues --   -5.77866  -0.94742  -0.91463  -0.81448  -0.76000
 Alpha  occ. eigenvalues --   -0.71844  -0.69954  -0.66848  -0.64405  -0.59944
 Alpha  occ. eigenvalues --   -0.59206  -0.53262  -0.50353  -0.49391  -0.48229
 Alpha  occ. eigenvalues --   -0.46037  -0.45125  -0.42430  -0.39136  -0.37408
 Alpha  occ. eigenvalues --   -0.35127  -0.34847  -0.34126  -0.34052  -0.31990
 Alpha  occ. eigenvalues --   -0.31650  -0.30307  -0.29329  -0.28690  -0.26777
 Alpha  occ. eigenvalues --   -0.25764  -0.23812  -0.23541  -0.21087  -0.20672
 Alpha  occ. eigenvalues --   -0.20241  -0.19131  -0.16347  -0.15719  -0.13646
 Alpha  occ. eigenvalues --   -0.11851  -0.11248  -0.09565   0.04714
 Alpha virt. eigenvalues --    0.06715   0.08321   0.08702   0.09573   0.09834
 Alpha virt. eigenvalues --    0.10207   0.10599   0.11073   0.11296   0.11983
 Alpha virt. eigenvalues --    0.12157   0.13053   0.14089   0.14468   0.15012

  Beta  occ. eigenvalues --  -88.73602 -18.96007 -14.28411 -14.22961 -14.22778
  Beta  occ. eigenvalues --  -10.14358 -10.10300 -10.10151 -10.08808 -10.07734
  Beta  occ. eigenvalues --  -10.05522 -10.05172 -10.05062 -10.04436 -10.04150
  Beta  occ. eigenvalues --  -10.04111 -10.03828  -7.82263  -5.78594  -5.78245
  Beta  occ. eigenvalues --   -5.77723  -0.94701  -0.91273  -0.81364  -0.75788
  Beta  occ. eigenvalues --   -0.71783  -0.69626  -0.66810  -0.64165  -0.59575
  Beta  occ. eigenvalues --   -0.58957  -0.53129  -0.50302  -0.49175  -0.47739
  Beta  occ. eigenvalues --   -0.45904  -0.45060  -0.42175  -0.39037  -0.37287
  Beta  occ. eigenvalues --   -0.34964  -0.34767  -0.34056  -0.33876  -0.31884
  Beta  occ. eigenvalues --   -0.31509  -0.30190  -0.29172  -0.28226  -0.26376
  Beta  occ. eigenvalues --   -0.25570  -0.23586  -0.23422  -0.20928  -0.20133
  Beta  occ. eigenvalues --   -0.19682  -0.18932  -0.16133  -0.15253  -0.13456
  Beta  occ. eigenvalues --   -0.11432  -0.10635  -0.08312
  Beta virt. eigenvalues --    0.07522   0.08383   0.08637   0.09543   0.09752
  Beta virt. eigenvalues --    0.10398   0.10537   0.10665   0.11132   0.11469
  Beta virt. eigenvalues --    0.12238   0.12466   0.13011   0.14080   0.14447

 Mulliken charges and spin densities:
               1          2
     1  C   -0.574812  -0.031786
     2  C   -0.143940   0.073601
     3  C    0.368032   0.080136
     4  C    0.038508   0.004601
     5  C    0.241892  -0.018369
     6  C   -0.276500   0.126951
     7  C    0.083129  -0.089116
     8  C   -0.051941   0.455457
     9  S   -0.552587  -0.014701
    10  C   -0.301681   0.093979
    11  O   -0.350771   0.031648
    12  N   -0.276688   0.018665
    13  C    0.132224   0.048453
    14  C   -0.019410  -0.416944
    15  N    0.117713  -0.130170
    16  N   -0.284871   0.100585
    17  C   -0.073737  -0.093247
    18  H    0.122577   0.008389
    19  H    0.098397   0.008337
    20  H    0.084469   0.033241
    21  H    0.142624  -0.002303
    22  H    0.214568   0.004173
    23  H    0.299734   0.002213
    24  H   -0.111055   0.323892
    25  H   -0.075906   0.397922
    26  H    0.150032  -0.015608
 Sum of Mulliken charges =  -1.00000   1.00000

 Dipole moment (field-independent basis, Debye):
    X=              0.8902    Y=             -1.8293    Z=              0.3036  Tot=              2.0569
 Quadrupole moment (field-independent basis, Debye-Ang):
   XX=           -136.7244   YY=           -142.8723   ZZ=           -123.3930
   XY=              7.9285   XZ=              8.2326   YZ=             -7.1710

 Summary of Natural Population Analysis:

                                       Natural Population
                Natural  -----------------------------------------------
    Atom  No    Charge         Core      Valence    Rydberg      Total
 -----------------------------------------------------------------------
      C    1   -0.11936      0.99958     2.11035    0.00943     3.11936
      C    2   -0.09292      0.99958     2.08222    0.01112     3.09292
      C    3   -0.10296      0.99950     2.09270    0.01077     3.10296
      C    4   -0.09348      0.99941     2.08326    0.01081     3.09348
      C    5   -0.03406      0.99944     2.02452    0.01011     3.03406
      C    6   -0.07064      0.99953     2.06305    0.00807     3.07064
      C    7   -0.10723      0.99939     2.09621    0.01163     3.10723
      C    8   -0.04174      0.99947     2.03073    0.01154     3.04174
      S    9    0.18464      4.99944     2.79472    0.02120     7.81536
      C   10    0.35819      0.99961     1.61773    0.02446     2.64181
      O   11   -0.31629      0.99988     3.31112    0.00529     4.31629
      N   12   -0.31696      0.99964     2.80805    0.00927     3.81696
      C   13    0.02082      0.99947     1.96720    0.01251     2.97918
      C   14   -0.01842      0.99953     2.00692    0.01198     3.01842
      N   15   -0.16527      0.99970     2.65170    0.01387     3.66527
      N   16   -0.15207      0.99974     2.63855    0.01378     3.65207
      C   17   -0.02369      0.99958     2.00958    0.01453     3.02369
      H   18    0.09360      0.00000     0.40524    0.00116     0.40640
      H   19    0.09203      0.00000     0.40709    0.00088     0.40797
      H   20    0.09637      0.00000     0.40257    0.00106     0.40363
      H   21    0.10051      0.00000     0.39826    0.00123     0.39949
      H   22    0.10401      0.00000     0.39508    0.00091     0.39599
      H   23    0.19276      0.00000     0.30561    0.00162     0.30724
      H   24    0.11599      0.00000     0.38228    0.00173     0.38401
      H   25    0.20059      0.00000     0.29594    0.00346     0.29941
      H   26    0.09558      0.00000     0.40363    0.00079     0.40442
 =======================================================================
   * Total *    0.00000     20.99248    41.78430    0.22321    63.00000

 Normal termination of Gaussian 16 at Fri Dec 11 12:51:45 2020.
