 Gaussian 16, Revision A.03,

 -----------------------------------------------------------
 # opt freq B3LYP/6-31G(d) empiricaldispersion=gd3bj scf=xqc
 -----------------------------------------------------------

 ------------------------------
 CID_80171306_JID_5684_neutraal
 ------------------------------
 Symbolic Z-matrix:
 Charge =  0 Multiplicity = 1

 SCF Done:  E(RB3LYP) =  -655.320613336     A.U. after   14 cycles
 SCF Done:  E(RB3LYP) =  -655.325823624     A.U. after   12 cycles
 SCF Done:  E(RB3LYP) =  -655.324391342     A.U. after   12 cycles
 SCF Done:  E(RB3LYP) =  -655.322703526     A.U. after   13 cycles
 SCF Done:  E(RB3LYP) =  -655.320923108     A.U. after   12 cycles
 SCF Done:  E(RB3LYP) =  -655.325868792     A.U. after    8 cycles
 SCF Done:  E(RB3LYP) =  -655.326829501     A.U. after   11 cycles
 SCF Done:  E(RB3LYP) =  -655.326891670     A.U. after   11 cycles
 SCF Done:  E(RB3LYP) =  -655.327108721     A.U. after   11 cycles
 SCF Done:  E(RB3LYP) =  -655.327189957     A.U. after   10 cycles
 SCF Done:  E(RB3LYP) =  -655.327685330     A.U. after   10 cycles
 SCF Done:  E(RB3LYP) =  -655.327738408     A.U. after   10 cycles
 SCF Done:  E(RB3LYP) =  -655.327745238     A.U. after    9 cycles
 SCF Done:  E(RB3LYP) =  -655.327746053     A.U. after    7 cycles
 SCF Done:  E(RB3LYP) =  -655.327746947     A.U. after    7 cycles
 SCF Done:  E(RB3LYP) =  -655.327747298     A.U. after    7 cycles
 Optimization completed.
    -- Stationary point found.
 Normal termination of Gaussian 16 at Thu Dec 10 16:42:30 2020.

 --------------------------------------------------------------------
 #N Geom=AllCheck Guess=TCheck SCRF=Check GenChk RB3LYP/6-31G(d) Freq
 --------------------------------------------------------------------

 Structure from the checkpoint file:  "JID_5684.chk"
 ------------------------------
 CID_80171306_JID_5684_neutraal
 ------------------------------
 Charge =  0 Multiplicity = 1

 SCF Done:  E(RB3LYP) =  -655.327747298     A.U. after    1 cycles

  Exact polarizability: 153.712   1.726 133.401   2.515   1.202 119.254
 Approx polarizability: 192.692   7.813 201.908   4.280   5.098 175.987

                      1                      2                      3
                      A                      A                      A
 Frequencies --     43.3770                52.0058                67.8164
 Red. masses --      3.2533                 2.9663                 3.8308
 Frc consts  --      0.0036                 0.0047                 0.0104
 IR Inten    --      0.1215                 0.1249                 0.4460

                      4                      5                      6
                      A                      A                      A
 Frequencies --     86.7271               144.7100               159.3910
 Red. masses --      4.3211                 2.9611                 2.6842
 Frc consts  --      0.0191                 0.0365                 0.0402
 IR Inten    --      2.2318                 1.7616                 0.4849

                      7                      8                      9
                      A                      A                      A
 Frequencies --    196.3102               228.4220               228.5317
 Red. masses --      2.7421                 2.2075                 1.0671
 Frc consts  --      0.0623                 0.0679                 0.0328
 IR Inten    --      1.1386                 2.1326                 0.1663

                     10                     11                     12
                      A                      A                      A
 Frequencies --    250.4053               259.4157               272.6416
 Red. masses --      1.7956                 2.2082                 1.1257
 Frc consts  --      0.0663                 0.0876                 0.0493
 IR Inten    --      5.0684                 0.3670                44.6087

                     13                     14                     15
                      A                      A                      A
 Frequencies --    279.6803               313.5551               326.3220
 Red. masses --      2.3719                 2.2032                 2.4031
 Frc consts  --      0.1093                 0.1276                 0.1508
 IR Inten    --      0.5380                12.4403                11.0978

                     16                     17                     18
                      A                      A                      A
 Frequencies --    358.3356               388.5132               402.4266
 Red. masses --      2.8834                 2.7920                 2.6499
 Frc consts  --      0.2181                 0.2483                 0.2528
 IR Inten    --      8.1944                 3.8776                10.3883

                     19                     20                     21
                      A                      A                      A
 Frequencies --    430.5643               442.4810               519.5253
 Red. masses --      2.0643                 2.4264                 3.9575
 Frc consts  --      0.2255                 0.2799                 0.6293
 IR Inten    --      1.4271                 2.5366                 2.7110

                     22                     23                     24
                      A                      A                      A
 Frequencies --    592.2423               599.0598               650.6896
 Red. masses --      2.2273                 2.7112                 3.6919
 Frc consts  --      0.4603                 0.5733                 0.9210
 IR Inten    --      0.4349                 2.4266                11.9195

                     25                     26                     27
                      A                      A                      A
 Frequencies --    723.7277               757.2785               766.0486
 Red. masses --      5.5468                 3.0012                 2.3340
 Frc consts  --      1.7118                 1.0140                 0.8070
 IR Inten    --     12.6505                 1.2440                 0.6685

                     28                     29                     30
                      A                      A                      A
 Frequencies --    796.1484               838.0845               851.3497
 Red. masses --      3.9043                 2.7156                 1.7072
 Frc consts  --      1.4581                 1.1238                 0.7290
 IR Inten    --      2.1824                26.9872                 3.0106

                     31                     32                     33
                      A                      A                      A
 Frequencies --    857.6760               877.7045               905.2068
 Red. masses --      2.0218                 2.3363                 1.9489
 Frc consts  --      0.8763                 1.0604                 0.9409
 IR Inten    --      0.2023                 0.7699                12.9455

                     34                     35                     36
                      A                      A                      A
 Frequencies --    924.1759               931.2076               954.5780
 Red. masses --      1.8982                 1.9364                 1.8676
 Frc consts  --      0.9552                 0.9893                 1.0026
 IR Inten    --     58.9927                 0.9697                 2.3779

                     37                     38                     39
                      A                      A                      A
 Frequencies --    968.4689               976.3249               986.5851
 Red. masses --      1.4435                 1.6640                 1.6130
 Frc consts  --      0.7977                 0.9346                 0.9250
 IR Inten    --      4.5984                53.2895                 4.5861

                     40                     41                     42
                      A                      A                      A
 Frequencies --   1005.6841              1016.5927              1027.6542
 Red. masses --      1.9169                 1.7833                 1.7759
 Frc consts  --      1.1423                 1.0858                 1.1050
 IR Inten    --      2.1787                 0.4486                 1.2809

                     43                     44                     45
                      A                      A                      A
 Frequencies --   1043.7923              1054.6955              1073.3563
 Red. masses --      2.4671                 1.9348                 1.5034
 Frc consts  --      1.5837                 1.2681                 1.0205
 IR Inten    --      6.9224                 4.6781                 1.2337

                     46                     47                     48
                      A                      A                      A
 Frequencies --   1081.7069              1124.8537              1171.3185
 Red. masses --      1.8645                 1.5397                 1.2587
 Frc consts  --      1.2854                 1.1478                 1.0175
 IR Inten    --      0.9255                 8.6630                13.0083

                     49                     50                     51
                      A                      A                      A
 Frequencies --   1185.7768              1196.1458              1203.3698
 Red. masses --      1.4772                 2.0013                 1.8078
 Frc consts  --      1.2238                 1.6871                 1.5424
 IR Inten    --      5.2621                 8.3497                21.2685

                     52                     53                     54
                      A                      A                      A
 Frequencies --   1224.0872              1234.2325              1245.5667
 Red. masses --      1.4878                 1.5380                 1.6163
 Frc consts  --      1.3135                 1.3804                 1.4774
 IR Inten    --     18.8444                 1.7431                19.5017

                     55                     56                     57
                      A                      A                      A
 Frequencies --   1262.7586              1265.5266              1280.9234
 Red. masses --      2.1848                 1.5363                 1.8447
 Frc consts  --      2.0526                 1.4497                 1.7833
 IR Inten    --     11.4449                 7.1613                 0.5208

                     58                     59                     60
                      A                      A                      A
 Frequencies --   1289.7085              1325.8133              1330.3637
 Red. masses --      1.3686                 1.6547                 1.3261
 Frc consts  --      1.3412                 1.7137                 1.3828
 IR Inten    --      1.9697                14.7885                 1.2951

                     61                     62                     63
                      A                      A                      A
 Frequencies --   1335.5865              1344.0049              1355.0398
 Red. masses --      1.4963                 1.3931                 1.3148
 Frc consts  --      1.5726                 1.4827                 1.4224
 IR Inten    --      6.3329                 4.0142                 1.8209

                     64                     65                     66
                      A                      A                      A
 Frequencies --   1363.5055              1370.5024              1379.4579
 Red. masses --      1.3398                 1.4977                 1.6050
 Frc consts  --      1.4676                 1.6574                 1.7994
 IR Inten    --      1.4600                12.6424                 5.2831

                     67                     68                     69
                      A                      A                      A
 Frequencies --   1387.9403              1429.5840              1447.0542
 Red. masses --      1.5999                 1.2876                 1.5571
 Frc consts  --      1.8158                 1.5504                 1.9211
 IR Inten    --      4.1277                10.1445                58.7999

                     70                     71                     72
                      A                      A                      A
 Frequencies --   1449.1861              1462.9954              1514.3437
 Red. masses --      1.2328                 2.9561                 1.0940
 Frc consts  --      1.5254                 3.7278                 1.4781
 IR Inten    --      5.2953               222.9140                 1.5249

                     73                     74                     75
                      A                      A                      A
 Frequencies --   1515.0636              1517.5024              1524.4647
 Red. masses --      1.0629                 1.0478                 1.0900
 Frc consts  --      1.4376                 1.4217                 1.4925
 IR Inten    --      0.8928                 0.2782                 1.8271

                     76                     77                     78
                      A                      A                      A
 Frequencies --   1529.1690              1535.1185              1538.5855
 Red. masses --      1.0793                 1.0569                 1.0604
 Frc consts  --      1.4870                 1.4675                 1.4790
 IR Inten    --      5.2083                 4.2807                 5.4902

                     79                     80                     81
                      A                      A                      A
 Frequencies --   1543.8294              1552.3659              1568.5660
 Red. masses --      1.0993                 1.0859                 1.0893
 Frc consts  --      1.5437                 1.5418                 1.5791
 IR Inten    --     15.9188                 2.6680                 3.5395

                     82                     83                     84
                      A                      A                      A
 Frequencies --   1699.7750              1731.7196              3029.8921
 Red. masses --      1.0887                 9.7740                 1.0725
 Frc consts  --      1.8533                17.2693                 5.8008
 IR Inten    --     31.9646               283.2022                20.5985

                     85                     86                     87
                      A                      A                      A
 Frequencies --   3037.9297              3040.8270              3043.2351
 Red. masses --      1.0450                 1.0563                 1.0622
 Frc consts  --      5.6822                 5.7546                 5.7961
 IR Inten    --      5.1269                52.4129                38.4390

                     88                     89                     90
                      A                      A                      A
 Frequencies --   3045.4212              3059.7944              3070.2206
 Red. masses --      1.0406                 1.0630                 1.0625
 Frc consts  --      5.6865                 5.8636                 5.9009
 IR Inten    --     27.2181                31.1959                24.1717

                     91                     92                     93
                      A                      A                      A
 Frequencies --   3071.6363              3090.4548              3093.9224
 Red. masses --      1.0724                 1.0850                 1.1011
 Frc consts  --      5.9616                 6.1058                 6.2102
 IR Inten    --     16.8271                22.5841                37.2705

                     94                     95                     96
                      A                      A                      A
 Frequencies --   3097.1790              3102.5071              3103.3764
 Red. masses --      1.1014                 1.1023                 1.0893
 Frc consts  --      6.2250                 6.2515                 6.1810
 IR Inten    --     14.8449                 2.8571                29.3691

                     97                     98                     99
                      A                      A                      A
 Frequencies --   3107.3505              3108.0856              3110.5721
 Red. masses --      1.1011                 1.0884                 1.1033
 Frc consts  --      6.2642                 6.1945                 6.2898
 IR Inten    --     52.0815                22.8771                 7.1631

                    100                    101                    102
                      A                      A                      A
 Frequencies --   3115.2051              3123.8503              3126.8135
 Red. masses --      1.1037                 1.1015                 1.0981
 Frc consts  --      6.3104                 6.3329                 6.3257
 IR Inten    --     77.6320                38.2400                43.8557

                    103                    104                    105
                      A                      A                      A
 Frequencies --   3141.5622              3465.7649              3548.9259
 Red. masses --      1.0912                 1.0496                 1.0921
 Frc consts  --      6.3455                 7.4277                 8.1040
 IR Inten    --     19.8460                 1.8251                 0.9688

 - Thermochemistry -
 -------------------
 Temperature   298.150 Kelvin.  Pressure   1.00000 Atm.
 Atom     1 has atomic number  6 and mass  12.00000

 Molecular mass:   210.17321 amu.
 Principal axes and moments of inertia in atomic units:
                           1         2         3
     Eigenvalues --  1917.327724308.571144947.51165
           X            1.00000  -0.00186  -0.00003
           Y            0.00186   0.99996  -0.00845
           Z            0.00005   0.00845   0.99996
 This molecule is an asymmetric top.
 Rotational symmetry number  1.
 Warning -- assumption of classical behavior for rotation
           may cause significant error
 Rotational temperatures (Kelvin)      0.04517     0.02010     0.01751
 Rotational constants (GHZ):           0.94128     0.41887     0.36478
 Zero-point vibrational energy     884528.0 (Joules/Mol)
                                  211.40726 (Kcal/Mol)
 Warning -- explicit consideration of  23 degrees of freedom as
           vibrations may cause significant error
 Vibrational temperatures:     62.41    74.82    97.57   124.78   208.21
          (Kelvin)            229.33   282.45   328.65   328.81   360.28
                              373.24   392.27   402.40   451.14   469.50
                              515.56   558.98   579.00   619.49   636.63
                              747.48   852.10   861.91   936.20  1041.28
                             1089.55  1102.17  1145.48  1205.82  1224.90
                             1234.00  1262.82  1302.39  1329.68  1339.80
                             1373.42  1393.41  1404.71  1419.48  1446.96
                             1462.65  1478.57  1501.78  1517.47  1544.32
                             1556.33  1618.41  1685.27  1706.07  1720.99
                             1731.38  1761.19  1775.79  1792.09  1816.83
                             1820.81  1842.96  1855.60  1907.55  1914.10
                             1921.61  1933.72  1949.60  1961.78  1971.85
                             1984.73  1996.94  2056.85  2081.99  2085.06
                             2104.92  2178.80  2179.84  2183.35  2193.36
                             2200.13  2208.69  2213.68  2221.23  2233.51
                             2256.82  2445.60  2491.56  4359.34  4370.90
                             4375.07  4378.54  4381.68  4402.36  4417.36
                             4419.40  4446.48  4451.46  4456.15  4463.82
                             4465.07  4470.78  4471.84  4475.42  4482.09
                             4494.52  4498.79  4520.01  4986.46  5106.11

 Zero-point correction=                           0.336899 (Hartree/Particle)
 Thermal correction to Energy=                    0.352194
 Thermal correction to Enthalpy=                  0.353138
 Thermal correction to Gibbs Free Energy=         0.294859
 Sum of electronic and zero-point Energies=           -654.990848
 Sum of electronic and thermal Energies=              -654.975554
 Sum of electronic and thermal Enthalpies=            -654.974609
 Sum of electronic and thermal Free Energies=         -655.032888

                     E (Thermal)             CV                S
                      KCal/Mol        Cal/Mol-Kelvin    Cal/Mol-Kelvin
 Total                  221.005             59.843            122.658
 Electronic               0.000              0.000              0.000
 Translational            0.889              2.981             41.932
 Rotational               0.889              2.981             32.080
 Vibrational            219.227             53.882             48.646
 Vibration     1          0.595              1.980              5.099
 Vibration     2          0.596              1.977              4.740
 Vibration     3          0.598              1.970              4.216
 Vibration     4          0.601              1.958              3.733
 Vibration     5          0.616              1.908              2.741
 Vibration     6          0.621              1.892              2.557
 Vibration     7          0.636              1.845              2.167
 Vibration     8          0.651              1.798              1.891
 Vibration     9          0.651              1.797              1.890
 Vibration    10          0.663              1.762              1.728
 Vibration    11          0.668              1.747              1.666
 Vibration    12          0.676              1.724              1.579
 Vibration    13          0.680              1.711              1.536
 Vibration    14          0.701              1.648              1.344
 Vibration    15          0.710              1.623              1.278
 Vibration    16          0.733              1.558              1.129
 Vibration    17          0.757              1.495              1.006
 Vibration    18          0.768              1.465              0.954
 Vibration    19          0.792              1.404              0.857
 Vibration    20          0.802              1.377              0.819
 Vibration    21          0.875              1.207              0.611
 Vibration    22          0.950              1.048              0.463
 Vibration    23          0.957              1.034              0.451

                           ! Non-Optimized Parameters !
 Normal termination of Gaussian 16 at Thu Dec 10 16:56:13 2020.

 ----------------------------------------------------------------------
 # B3LYP/6-311++G(d,p) empiricaldispersion=gd3bj scf=xqc pop=npa geom=c
 heck
 ----------------------------------------------------------------------

 --------------------------------------
 CID_80171306_JID_5684_Energie_neutraal
 --------------------------------------
 Structure from the checkpoint file:  "JID_5684.chk"
 Charge =  0 Multiplicity = 1

 SCF Done:  E(RB3LYP) =  -655.516398272     A.U. after   15 cycles
 Normal termination of Gaussian 16 at Thu Dec 10 17:03:54 2020.

 ----------------------------------------------------------------------
 # B3LYP/6-311++G(d,p) empiricaldispersion=gd3bj scf=xqc pop=npa geom=c
 heck
 ----------------------------------------------------------------------

 ------------------------------------
 CID_80171306_JID_5684_Energie_kation
 ------------------------------------
 Structure from the checkpoint file:  "JID_5684.chk"
 Charge =  1 Multiplicity = 2

 SCF Done:  E(UB3LYP) =  -655.216701144     A.U. after   26 cycles
 Normal termination of Gaussian 16 at Thu Dec 10 17:25:26 2020.
 Gaussian 16:  ES64L-G16RevA.03 25-Dec-2016

 ----------------------------------------------------------------------
 # B3LYP/6-311++G(d,p) empiricaldispersion=gd3bj scf=xqc pop=npa geom=c
 heck
 ----------------------------------------------------------------------

 -----------------------------------
 CID_80171306_JID_5684_Energie_anion
 -----------------------------------
 Structure from the checkpoint file:  "JID_5684.chk"
 Charge = -1 Multiplicity = 2

                         Standard orientation:
 ---------------------------------------------------------------------
 Center     Atomic      Atomic             Coordinates (Angstroms)
 Number     Number       Type             X           Y           Z
 ---------------------------------------------------------------------
      1          6           0       -2.586893   -0.913696    1.482712
      2          6           0       -2.438538   -0.704965   -0.032428
      3          6           0       -2.994103    0.676661   -0.451361
      4          6           0       -1.875407    1.678744   -0.115176
      5          7           0       -0.667846    0.845465    0.002814
      6          6           0       -0.954162   -0.527320   -0.400425
      7          6           0        0.519345    1.474498    0.248537
      8          8           0        0.548433    2.702280    0.345177
      9          6           0        1.806356    0.684308    0.495668
     10          6           0        1.761367   -0.540153    1.464850
     11          6           0        2.550230   -1.663053    0.755768
     12          6           0        3.483517   -0.905729   -0.203171
     13          6           0        2.583586    0.213961   -0.772217
     14          7           0        1.706005   -0.213772   -1.871303
     15          6           0       -3.086074   -1.859907   -0.796888
     16          1           0       -2.096350   -0.112325    2.044880
     17          1           0       -3.644212   -0.933667    1.770992
     18          1           0       -2.137502   -1.865587    1.791181
     19          1           0       -3.189123    0.676567   -1.530213
     20          1           0       -3.935387    0.917980    0.052581
     21          1           0       -2.041882    2.206161    0.829917
     22          1           0       -1.741533    2.444266   -0.885697
     23          1           0       -0.308731   -1.247170    0.105467
     24          1           0       -0.814743   -0.644293   -1.482949
     25          1           0        2.441330    1.443394    0.957908
     26          1           0        0.746992   -0.840226    1.737173
     27          1           0        2.258149   -0.267891    2.401881
     28          1           0        1.869585   -2.308437    0.182900
     29          1           0        3.085751   -2.314146    1.453468
     30          1           0        3.912827   -1.534780   -0.991438
     31          1           0        4.315921   -0.466476    0.362731
     32          1           0        3.169760    1.051250   -1.161755
     33          1           0        2.265057   -0.304808   -2.718288
     34          1           0        1.339953   -1.145529   -1.682501
     35          1           0       -4.157400   -1.923455   -0.573696
     36          1           0       -2.974596   -1.730201   -1.879772
     37          1           0       -2.633782   -2.820811   -0.521974
 ---------------------------------------------------------------------

 SCF Done:  E(UB3LYP) =  -655.506601288     A.U. after   31 cycles

 The electronic state is 2-A.
 Alpha  occ. eigenvalues --  -18.97723 -14.23438 -14.19423 -10.16296 -10.10555
 Alpha  occ. eigenvalues --  -10.10138 -10.10095 -10.09154 -10.07885 -10.07523
 Alpha  occ. eigenvalues --  -10.07257 -10.06970 -10.06850 -10.06350 -10.06311
 Alpha  occ. eigenvalues --   -0.93063  -0.84020  -0.79819  -0.72435  -0.71748
 Alpha  occ. eigenvalues --   -0.65442  -0.62567  -0.60284  -0.59756  -0.59389
 Alpha  occ. eigenvalues --   -0.53536  -0.48554  -0.47721  -0.45765  -0.44610
 Alpha  occ. eigenvalues --   -0.42061  -0.40205  -0.38569  -0.36223  -0.35822
 Alpha  occ. eigenvalues --   -0.35090  -0.34486  -0.33447  -0.32991  -0.31475
 Alpha  occ. eigenvalues --   -0.31382  -0.30929  -0.29308  -0.28492  -0.27469
 Alpha  occ. eigenvalues --   -0.26765  -0.26436  -0.25735  -0.24710  -0.24324
 Alpha  occ. eigenvalues --   -0.24130  -0.23227  -0.23124  -0.22766  -0.21953
 Alpha  occ. eigenvalues --   -0.15146  -0.14346  -0.13747   0.04065
 Alpha virt. eigenvalues --    0.06116   0.07074   0.07427   0.08354   0.08619
 Alpha virt. eigenvalues --    0.08819   0.09933   0.10155   0.10481   0.10743
 Alpha virt. eigenvalues --    0.11337   0.11547   0.11937   0.12247   0.13005

  Beta  occ. eigenvalues --  -18.97721 -14.23437 -14.19386 -10.16296 -10.10549
  Beta  occ. eigenvalues --  -10.10133 -10.10069 -10.09154 -10.07884 -10.07506
  Beta  occ. eigenvalues --  -10.07245 -10.06938 -10.06829 -10.06320 -10.06274
  Beta  occ. eigenvalues --   -0.93059  -0.84011  -0.79764  -0.72412  -0.71711
  Beta  occ. eigenvalues --   -0.65418  -0.62534  -0.60237  -0.59709  -0.59326
  Beta  occ. eigenvalues --   -0.53501  -0.48514  -0.47650  -0.45716  -0.44571
  Beta  occ. eigenvalues --   -0.42022  -0.40176  -0.38536  -0.36193  -0.35795
  Beta  occ. eigenvalues --   -0.35053  -0.34447  -0.33426  -0.32956  -0.31453
  Beta  occ. eigenvalues --   -0.31352  -0.30901  -0.29282  -0.28461  -0.27441
  Beta  occ. eigenvalues --   -0.26743  -0.26410  -0.25702  -0.24669  -0.24289
  Beta  occ. eigenvalues --   -0.24097  -0.23204  -0.23094  -0.22733  -0.21928
  Beta  occ. eigenvalues --   -0.15122  -0.14318  -0.13741
  Beta virt. eigenvalues --    0.06271   0.06807   0.07805   0.08079   0.08749
  Beta virt. eigenvalues --    0.08909   0.09208   0.10371   0.10479   0.10759
  Beta virt. eigenvalues --    0.11013   0.11592   0.11763   0.12158   0.12372

 Mulliken charges and spin densities:
               1          2
     1  C    0.852201  -1.479948
     2  C   -1.141855   1.832635
     3  C   -0.221901  -0.357325
     4  C   -0.128477   0.002486
     5  N    0.116128   0.049495
     6  C   -0.330042  -0.442729
     7  C   -0.344366   0.300764
     8  O   -0.327361  -0.001085
     9  C    0.479642  -0.639078
    10  C   -0.482160   0.184819
    11  C    0.500168  -0.815878
    12  C    0.098190  -0.646198
    13  C    0.300759  -0.113877
    14  N   -0.471520   0.008907
    15  C    0.542637  -1.165873
    16  H    0.137087   0.014542
    17  H   -0.170011   0.332544
    18  H   -0.185858   0.336548
    19  H    0.096675   0.057397
    20  H   -0.089550   0.252303
    21  H    0.154610   0.035965
    22  H    0.123973   0.067650
    23  H    1.067111  -0.962018
    24  H    0.080060   0.143193
    25  H    0.208539   0.033814
    26  H   -0.047359   0.208247
    27  H   -0.140921   0.310339
    28  H   -0.505070   0.647886
    29  H   -0.382814   0.563501
    30  H   -0.291534   0.479098
    31  H    0.102976   0.013816
    32  H    0.133287   0.085551
    33  H   -0.062078   0.333771
    34  H    0.108482   0.104338
    35  H   -0.133016   0.289833
    36  H   -0.186597   0.321154
    37  H   -0.460037   0.613412
 Sum of Mulliken charges =  -1.00000   1.00000

 Dipole moment (field-independent basis, Debye):
    X=             -0.1736    Y=              3.6749    Z=              0.9560  Tot=              3.8011
 Quadrupole moment (field-independent basis, Debye-Ang):
   XX=           -154.4980   YY=           -153.0620   ZZ=           -132.1926
   XY=             -1.5614   XZ=              2.1589   YZ=             -1.7942

 Summary of Natural Population Analysis:

                                       Natural Population
                Natural  -----------------------------------------------
    Atom  No    Charge         Core      Valence    Rydberg      Total
 -----------------------------------------------------------------------
      C    1   -0.28577      0.99962     2.27887    0.00728     3.28577
      C    2   -0.04874      0.99958     2.03602    0.01315     3.04874
      C    3   -0.19269      0.99959     2.18425    0.00886     3.19269
      C    4   -0.08114      0.99963     2.07248    0.00903     3.08114
      N    5   -0.25444      0.99963     2.74584    0.00896     3.75444
      C    6   -0.08245      0.99955     2.07095    0.01195     3.08245
      C    7    0.35750      0.99960     1.62031    0.02260     2.64250
      O    8   -0.33300      0.99988     3.32821    0.00490     4.33300
      C    9   -0.15153      0.99954     2.14016    0.01184     3.15153
      C   10   -0.19232      0.99963     2.18436    0.00834     3.19232
      C   11   -0.19468      0.99964     2.18629    0.00876     3.19468
      C   12   -0.19855      0.99961     2.19007    0.00886     3.19855
      C   13   -0.00633      0.99959     1.99314    0.01361     3.00633
      N   14   -0.42442      0.99977     2.91351    0.01114     3.92442
      C   15   -0.28314      0.99962     2.27631    0.00721     3.28314
      H   16    0.10128      0.00000     0.39738    0.00134     0.39872
      H   17    0.09985      0.00000     0.39921    0.00094     0.40015
      H   18    0.10226      0.00000     0.39664    0.00109     0.39774
      H   19    0.09967      0.00000     0.39920    0.00113     0.40033
      H   20    0.10261      0.00000     0.39652    0.00087     0.39739
      H   21    0.09741      0.00000     0.40145    0.00113     0.40259
      H   22    0.10107      0.00000     0.39771    0.00122     0.39893
      H   23    0.10340      0.00000     0.39410    0.00250     0.39660
      H   24    0.10109      0.00000     0.39702    0.00189     0.39891
      H   25    0.11394      0.00000     0.38485    0.00121     0.38606
      H   26    0.10246      0.00000     0.39610    0.00145     0.39754
      H   27    0.09874      0.00000     0.40027    0.00099     0.40126
      H   28    0.09498      0.00000     0.40256    0.00246     0.40502
      H   29    0.10255      0.00000     0.39614    0.00131     0.39745
      H   30    0.10307      0.00000     0.39541    0.00152     0.39693
      H   31    0.09548      0.00000     0.40342    0.00110     0.40452
      H   32    0.09559      0.00000     0.40343    0.00098     0.40441
      H   33    0.17720      0.00000     0.32093    0.00187     0.32280
      H   34    0.17397      0.00000     0.32300    0.00302     0.32603
      H   35    0.10068      0.00000     0.39816    0.00116     0.39932
      H   36    0.10082      0.00000     0.39790    0.00128     0.39918
      H   37    0.10360      0.00000     0.39496    0.00144     0.39640
 =======================================================================
   * Total *   -0.00000     14.99447    42.81716    0.18838    58.00000

 Normal termination of Gaussian 16 at Thu Dec 10 17:41:28 2020.
