 Gaussian 16, Revision A.03,

 -----------------------------------------------------------
 # opt freq B3LYP/6-31G(d) empiricaldispersion=gd3bj scf=xqc
 -----------------------------------------------------------

 ------------------------------
 CID_83066749_JID_3940_neutraal
 ------------------------------
 Symbolic Z-matrix:
 Charge =  0 Multiplicity = 1

 SCF Done:  E(RB3LYP) =  -993.635521004     A.U. after   14 cycles
 SCF Done:  E(RB3LYP) =  -993.644408144     A.U. after   12 cycles
 SCF Done:  E(RB3LYP) =  -993.646944430     A.U. after   14 cycles
 SCF Done:  E(RB3LYP) =  -993.648289818     A.U. after   13 cycles
 SCF Done:  E(RB3LYP) =  -993.648798492     A.U. after   12 cycles
 SCF Done:  E(RB3LYP) =  -993.649221076     A.U. after   12 cycles
 SCF Done:  E(RB3LYP) =  -993.649568978     A.U. after   12 cycles
 SCF Done:  E(RB3LYP) =  -993.649764316     A.U. after   11 cycles
 SCF Done:  E(RB3LYP) =  -993.649857783     A.U. after   11 cycles
 SCF Done:  E(RB3LYP) =  -993.649883568     A.U. after   10 cycles
 SCF Done:  E(RB3LYP) =  -993.649888807     A.U. after   11 cycles
 SCF Done:  E(RB3LYP) =  -993.649893148     A.U. after    9 cycles
 SCF Done:  E(RB3LYP) =  -993.649895694     A.U. after    8 cycles
 SCF Done:  E(RB3LYP) =  -993.649896813     A.U. after    9 cycles
 SCF Done:  E(RB3LYP) =  -993.649896811     A.U. after    7 cycles
 Optimization completed.
    -- Stationary point found.
 Normal termination of Gaussian 16 at Mon Dec 14 16:34:03 2020.

 --------------------------------------------------------------------
 #N Geom=AllCheck Guess=TCheck SCRF=Check GenChk RB3LYP/6-31G(d) Freq
 --------------------------------------------------------------------

 Structure from the checkpoint file:  "JID_3940.chk"
 ------------------------------
 CID_83066749_JID_3940_neutraal
 ------------------------------
 Charge =  0 Multiplicity = 1

 SCF Done:  E(RB3LYP) =  -993.649896811     A.U. after    1 cycles

  Exact polarizability: 127.017   2.161 109.812  -0.361   3.054 103.702
 Approx polarizability: 170.035   2.943 158.006  -3.783  -1.494 159.541

                      1                      2                      3
                      A                      A                      A
 Frequencies --     34.1989                43.6577                56.0859
 Red. masses --      4.1205                 3.8247                 4.1078
 Frc consts  --      0.0028                 0.0043                 0.0076
 IR Inten    --      0.7868                 2.2959                 1.3067

                      4                      5                      6
                      A                      A                      A
 Frequencies --     95.4471               142.0870               162.4620
 Red. masses --      2.7811                 3.3703                 4.2573
 Frc consts  --      0.0149                 0.0401                 0.0662
 IR Inten    --      0.7030                11.5148                 0.6666

                      7                      8                      9
                      A                      A                      A
 Frequencies --    170.6384               201.4733               221.4784
 Red. masses --      2.7515                 3.7066                 1.8134
 Frc consts  --      0.0472                 0.0886                 0.0524
 IR Inten    --      6.5703                 0.8689                 1.0132

                     10                     11                     12
                      A                      A                      A
 Frequencies --    226.4737               266.9339               283.3017
 Red. masses --      1.1202                 2.1116                 1.8407
 Frc consts  --      0.0339                 0.0886                 0.0870
 IR Inten    --      0.2897                 1.5001                 6.3988

                     13                     14                     15
                      A                      A                      A
 Frequencies --    300.0295               323.3908               374.7845
 Red. masses --      2.3464                 2.1316                 3.7452
 Frc consts  --      0.1244                 0.1313                 0.3099
 IR Inten    --      2.4383                 1.1338                10.0433

                     16                     17                     18
                      A                      A                      A
 Frequencies --    387.5890               414.8842               441.6055
 Red. masses --      2.8888                 3.5582                 3.1312
 Frc consts  --      0.2557                 0.3609                 0.3598
 IR Inten    --      2.0730                16.9287                 3.0020

                     19                     20                     21
                      A                      A                      A
 Frequencies --    460.5365               488.1189               545.6485
 Red. masses --      3.3128                 4.8207                 2.9491
 Frc consts  --      0.4140                 0.6767                 0.5173
 IR Inten    --     11.9763                15.9352                 2.7263

                     22                     23                     24
                      A                      A                      A
 Frequencies --    608.9554               629.3478               711.7831
 Red. masses --      3.9400                 3.0950                 2.0431
 Frc consts  --      0.8608                 0.7222                 0.6099
 IR Inten    --      4.2377                46.4517                56.3465

                     25                     26                     27
                      A                      A                      A
 Frequencies --    719.8507               797.1510               841.1629
 Red. masses --      2.5637                 1.3875                 2.2751
 Frc consts  --      0.7827                 0.5195                 0.9485
 IR Inten    --     15.5293                43.1531                15.0396

                     28                     29                     30
                      A                      A                      A
 Frequencies --    871.5792               935.0758               945.8004
 Red. masses --      1.6620                 1.9249                 2.4964
 Frc consts  --      0.7439                 0.9916                 1.3157
 IR Inten    --      0.6058                29.9474                15.4667

                     31                     32                     33
                      A                      A                      A
 Frequencies --    971.4214               981.8744               993.3209
 Red. masses --      1.5874                 1.6114                 1.6068
 Frc consts  --      0.8826                 0.9153                 0.9341
 IR Inten    --      9.4798                 3.8342                 0.5432

                     34                     35                     36
                      A                      A                      A
 Frequencies --   1003.6444              1018.2487              1042.2694
 Red. masses --      1.7787                 2.5129                 2.6399
 Frc consts  --      1.0557                 1.5351                 1.6897
 IR Inten    --      3.0581                 3.2821                 6.8601

                     37                     38                     39
                      A                      A                      A
 Frequencies --   1051.6527              1073.1056              1091.3327
 Red. masses --      2.0395                 1.6586                 2.2242
 Frc consts  --      1.3290                 1.1253                 1.5608
 IR Inten    --     22.2475                26.4823                 4.8595

                     40                     41                     42
                      A                      A                      A
 Frequencies --   1115.0428              1129.5587              1135.3364
 Red. masses --      3.7544                 3.8214                 1.1969
 Frc consts  --      2.7503                 2.8727                 0.9090
 IR Inten    --    154.1050                82.2651                17.3373

                     43                     44                     45
                      A                      A                      A
 Frequencies --   1185.3132              1190.0567              1219.7136
 Red. masses --      1.4808                 2.4273                 1.3312
 Frc consts  --      1.2258                 2.0254                 1.1668
 IR Inten    --     12.9792                 8.1639                 1.0841

                     46                     47                     48
                      A                      A                      A
 Frequencies --   1267.5574              1274.4260              1278.7380
 Red. masses --      1.7690                 2.2231                 1.4239
 Frc consts  --      1.6746                 2.1273                 1.3718
 IR Inten    --     45.5061               113.1403                 9.4077

                     49                     50                     51
                      A                      A                      A
 Frequencies --   1280.8303              1287.9746              1304.4136
 Red. masses --      1.3184                 2.3361                 1.6699
 Frc consts  --      1.2744                 2.2832                 1.6741
 IR Inten    --      6.1685                85.2535                56.7888

                     52                     53                     54
                      A                      A                      A
 Frequencies --   1338.2661              1354.8235              1382.5902
 Red. masses --      1.5728                 1.3727                 1.7425
 Frc consts  --      1.6596                 1.4845                 1.9625
 IR Inten    --     30.7698                 9.6055                 8.7062

                     55                     56                     57
                      A                      A                      A
 Frequencies --   1386.8726              1434.0969              1437.1942
 Red. masses --      1.3153                 1.2166                 1.2823
 Frc consts  --      1.4906                 1.4742                 1.5605
 IR Inten    --      7.0106                 4.2729                12.5744

                     58                     59                     60
                      A                      A                      A
 Frequencies --   1445.3993              1473.3377              1476.0963
 Red. masses --      1.3841                 1.1017                 1.1067
 Frc consts  --      1.7037                 1.4090                 1.4207
 IR Inten    --      3.2707                12.5499                 4.9790

                     61                     62                     63
                      A                      A                      A
 Frequencies --   1515.4493              1522.8493              1528.2501
 Red. masses --      1.0490                 1.0536                 1.0582
 Frc consts  --      1.4193                 1.4395                 1.4562
 IR Inten    --      3.5128                 0.6498                 4.2857

                     64                     65                     66
                      A                      A                      A
 Frequencies --   1529.4788              1538.9204              1547.0383
 Red. masses --      1.0642                 1.0453                 1.0881
 Frc consts  --      1.4667                 1.4586                 1.5344
 IR Inten    --      2.7466                 3.1394                 0.4922

                     67                     68                     69
                      A                      A                      A
 Frequencies --   1562.9861              3015.4592              3022.1758
 Red. masses --      1.0965                 1.0628                 1.0669
 Frc consts  --      1.5782                 5.6941                 5.7415
 IR Inten    --     19.8914                53.2152                57.6392

                     70                     71                     72
                      A                      A                      A
 Frequencies --   3027.4998              3056.9976              3066.9043
 Red. masses --      1.0710                 1.0361                 1.0353
 Frc consts  --      5.7839                 5.7050                 5.7374
 IR Inten    --     40.4186                18.8657                15.6536

                     73                     74                     75
                      A                      A                      A
 Frequencies --   3078.4025              3091.8394              3097.1762
 Red. masses --      1.0998                 1.0662                 1.0602
 Frc consts  --      6.1407                 6.0054                 5.9918
 IR Inten    --     43.3243                 3.4011                 3.7551

                     76                     77                     78
                      A                      A                      A
 Frequencies --   3097.6812              3123.9287              3125.2419
 Red. masses --      1.1000                 1.1020                 1.0944
 Frc consts  --      6.2190                 6.3364                 6.2979
 IR Inten    --     10.0087                24.4525                 4.2819

                     79                     80                     81
                      A                      A                      A
 Frequencies --   3133.5719              3138.4179              3149.5579
 Red. masses --      1.1009                 1.1028                 1.1035
 Frc consts  --      6.3691                 6.4000                 6.4493
 IR Inten    --     12.8812                27.1973                 7.2966

                     82                     83                     84
                      A                      A                      A
 Frequencies --   3157.2035              3183.1448              3515.8249
 Red. masses --      1.1042                 1.0999                 1.0763
 Frc consts  --      6.4850                 6.5663                 7.8388
 IR Inten    --      4.2619                 4.2211                 2.0852

 - Thermochemistry -
 -------------------
 Temperature   298.150 Kelvin.  Pressure   1.00000 Atm.
 Atom     1 has atomic number  6 and mass  12.00000

 Molecular mass:   207.09292 amu.
 Principal axes and moments of inertia in atomic units:
                           1         2         3
     Eigenvalues --  1468.480523971.815494463.71681
           X            0.99986   0.01540  -0.00697
           Y           -0.01506   0.99880   0.04658
           Z            0.00768  -0.04646   0.99889
 This molecule is an asymmetric top.
 Rotational symmetry number  1.
 Warning -- assumption of classical behavior for rotation
           may cause significant error
 Rotational temperatures (Kelvin)      0.05898     0.02181     0.01940
 Rotational constants (GHZ):           1.22899     0.45439     0.40431
 Zero-point vibrational energy     676799.5 (Joules/Mol)
                                  161.75896 (Kcal/Mol)
 Warning -- explicit consideration of  22 degrees of freedom as
           vibrations may cause significant error
 Vibrational temperatures:     49.20    62.81    80.70   137.33   204.43
          (Kelvin)            233.75   245.51   289.88   318.66   325.85
                              384.06   407.61   431.68   465.29   539.23
                              557.65   596.93   635.37   662.61   702.29
                              785.07   876.15   905.49  1024.10  1035.70
                             1146.92  1210.25  1254.01  1345.37  1360.80
                             1397.66  1412.70  1429.17  1444.02  1465.03
                             1499.59  1513.09  1543.96  1570.18  1604.30
                             1625.18  1633.50  1705.40  1712.23  1754.90
                             1823.73  1833.61  1839.82  1842.83  1853.11
                             1876.76  1925.47  1949.29  1989.24  1995.40
                             2063.35  2067.80  2079.61  2119.80  2123.77
                             2180.39  2191.04  2198.81  2200.58  2214.16
                             2225.84  2248.79  4338.57  4348.24  4355.90
                             4398.34  4412.59  4429.13  4448.47  4456.15
                             4456.87  4494.64  4496.53  4508.51  4515.48
                             4531.51  4542.51  4579.84  5058.49

 Zero-point correction=                           0.257779 (Hartree/Particle)
 Thermal correction to Energy=                    0.272408
 Thermal correction to Enthalpy=                  0.273352
 Thermal correction to Gibbs Free Energy=         0.215712
 Sum of electronic and zero-point Energies=           -993.392117
 Sum of electronic and thermal Energies=              -993.377489
 Sum of electronic and thermal Enthalpies=            -993.376545
 Sum of electronic and thermal Free Energies=         -993.434185

                     E (Thermal)             CV                S
                      KCal/Mol        Cal/Mol-Kelvin    Cal/Mol-Kelvin
 Total                  170.938             54.466            121.314
 Electronic               0.000              0.000              0.000
 Translational            0.889              2.981             41.888
 Rotational               0.889              2.981             31.632
 Vibrational            169.161             48.504             47.793
 Vibration     1          0.594              1.983              5.570
 Vibration     2          0.595              1.980              5.086
 Vibration     3          0.596              1.975              4.590
 Vibration     4          0.603              1.952              3.545
 Vibration     5          0.616              1.911              2.776
 Vibration     6          0.623              1.888              2.521
 Vibration     7          0.626              1.879              2.428
 Vibration     8          0.638              1.838              2.120
 Vibration     9          0.648              1.808              1.947
 Vibration    10          0.650              1.801              1.907
 Vibration    11          0.672              1.734              1.616
 Vibration    12          0.682              1.705              1.514
 Vibration    13          0.693              1.674              1.417
 Vibration    14          0.708              1.629              1.293
 Vibration    15          0.746              1.524              1.060
 Vibration    16          0.756              1.497              1.009
 Vibration    17          0.778              1.438              0.910
 Vibration    18          0.801              1.379              0.822
 Vibration    19          0.818              1.338              0.765
 Vibration    20          0.844              1.276              0.689
 Vibration    21          0.901              1.149              0.553
 Vibration    22          0.968              1.013              0.435

 Optimization completed.
    -- Stationary point found.
 Normal termination of Gaussian 16 at Mon Dec 14 16:42:34 2020.

 ----------------------------------------------------------------------
 # B3LYP/6-311++G(d,p) empiricaldispersion=gd3bj scf=xqc pop=npa geom=c
 heck
 ----------------------------------------------------------------------

 --------------------------------------
 CID_83066749_JID_3940_Energie_neutraal
 --------------------------------------
 Structure from the checkpoint file:  "JID_3940.chk"
 Charge =  0 Multiplicity = 1

 SCF Done:  E(RB3LYP) =  -993.854323546     A.U. after   15 cycles
 Normal termination of Gaussian 16 at Mon Dec 14 16:46:36 2020.

 ----------------------------------------------------------------------
 # B3LYP/6-311++G(d,p) empiricaldispersion=gd3bj scf=xqc pop=npa geom=c
 heck
 ----------------------------------------------------------------------

 ------------------------------------
 CID_83066749_JID_3940_Energie_kation
 ------------------------------------
 Structure from the checkpoint file:  "JID_3940.chk"
 Charge =  1 Multiplicity = 2

 SCF Done:  E(UB3LYP) =  -993.532731028     A.U. after   28 cycles
 Normal termination of Gaussian 16 at Mon Dec 14 16:57:12 2020.
 Gaussian 16:  ES64L-G16RevA.03 25-Dec-2016

 ----------------------------------------------------------------------
 # B3LYP/6-311++G(d,p) empiricaldispersion=gd3bj scf=xqc pop=npa geom=c
 heck
 ----------------------------------------------------------------------

 -----------------------------------
 CID_83066749_JID_3940_Energie_anion
 -----------------------------------
 Structure from the checkpoint file:  "JID_3940.chk"
 Charge = -1 Multiplicity = 2

                         Standard orientation:
 ---------------------------------------------------------------------
 Center     Atomic      Atomic             Coordinates (Angstroms)
 Number     Number       Type             X           Y           Z
 ---------------------------------------------------------------------
      1          6           0        2.049955    2.241703   -0.163566
      2          6           0        1.678149    1.142965    0.823205
      3         16           0        2.004499   -0.535316    0.207025
      4          8           0        3.439694   -0.620148   -0.118250
      5          8           0        1.396044   -1.477060    1.167037
      6          6           0        1.112332   -0.707002   -1.373924
      7          6           0       -0.392583   -0.797041   -1.216971
      8          8           0       -0.863086    0.475616   -0.784377
      9          6           0       -2.072372    0.511138   -0.030826
     10          6           0       -3.241415   -0.355312   -0.585290
     11          7           0       -2.940661   -1.386206    0.434136
     12          6           0       -2.104889   -0.433558    1.207102
     13          6           0       -2.351484    1.982613    0.204976
     14          1           0        3.068386    2.102596   -0.537629
     15          1           0        1.998094    3.215087    0.335176
     16          1           0        1.352096    2.259898   -1.005139
     17          1           0        2.289270    1.179196    1.731342
     18          1           0        0.623793    1.167484    1.096758
     19          1           0        1.414388    0.124099   -2.015843
     20          1           0        1.522431   -1.633087   -1.788874
     21          1           0       -0.836188   -1.055755   -2.188927
     22          1           0       -0.652142   -1.587596   -0.507963
     23          1           0       -4.211014    0.150842   -0.469821
     24          1           0       -3.151732   -0.700526   -1.622134
     25          1           0       -3.748020   -1.757822    0.928194
     26          1           0       -1.142576   -0.840681    1.536929
     27          1           0       -2.608305    0.036463    2.064399
     28          1           0       -1.526006    2.444956    0.757717
     29          1           0       -2.456180    2.506259   -0.751060
     30          1           0       -3.271023    2.116781    0.782003
 ---------------------------------------------------------------------

 SCF Done:  E(UB3LYP) =  -993.844046111     A.U. after   29 cycles

 The electronic state is 2-A.
 Alpha  occ. eigenvalues --  -88.94892 -19.03965 -19.02009 -19.01974 -14.20108
 Alpha  occ. eigenvalues --  -10.13850 -10.13645 -10.12185 -10.11796 -10.09473
 Alpha  occ. eigenvalues --  -10.09260 -10.08513 -10.06282  -8.01429  -5.97689
 Alpha  occ. eigenvalues --   -5.97575  -5.97522  -1.01099  -0.95431  -0.90813
 Alpha  occ. eigenvalues --   -0.82879  -0.72433  -0.70165  -0.65740  -0.59340
 Alpha  occ. eigenvalues --   -0.58397  -0.56571  -0.56147  -0.49083  -0.46294
 Alpha  occ. eigenvalues --   -0.42518  -0.42152  -0.40429  -0.39947  -0.37999
 Alpha  occ. eigenvalues --   -0.37595  -0.35749  -0.34239  -0.33986  -0.33658
 Alpha  occ. eigenvalues --   -0.32283  -0.30531  -0.29985  -0.29713  -0.28492
 Alpha  occ. eigenvalues --   -0.28425  -0.28149  -0.27388  -0.24480  -0.23763
 Alpha  occ. eigenvalues --   -0.22763  -0.21738  -0.21098  -0.19507  -0.16798
 Alpha  occ. eigenvalues --   -0.13662   0.04113
 Alpha virt. eigenvalues --    0.06165   0.06565   0.07958   0.08522   0.08769
 Alpha virt. eigenvalues --    0.09605   0.09970   0.10781   0.11194   0.11697
 Alpha virt. eigenvalues --    0.11989   0.12846   0.13417   0.13787   0.14083

  Beta  occ. eigenvalues --  -88.94891 -19.03957 -19.02007 -19.01972 -14.20089
  Beta  occ. eigenvalues --  -10.13850 -10.13630 -10.12167 -10.11783 -10.09439
  Beta  occ. eigenvalues --  -10.09241 -10.08480 -10.06241  -8.01428  -5.97688
  Beta  occ. eigenvalues --   -5.97574  -5.97522  -1.01095  -0.95420  -0.90809
  Beta  occ. eigenvalues --   -0.82853  -0.72408  -0.70136  -0.65700  -0.59292
  Beta  occ. eigenvalues --   -0.58339  -0.56498  -0.56090  -0.49048  -0.46246
  Beta  occ. eigenvalues --   -0.42491  -0.42090  -0.40409  -0.39903  -0.37977
  Beta  occ. eigenvalues --   -0.37570  -0.35737  -0.34204  -0.33953  -0.33625
  Beta  occ. eigenvalues --   -0.32238  -0.30489  -0.29949  -0.29673  -0.28445
  Beta  occ. eigenvalues --   -0.28386  -0.28118  -0.27353  -0.24453  -0.23755
  Beta  occ. eigenvalues --   -0.22756  -0.21703  -0.21094  -0.19491  -0.16779
  Beta  occ. eigenvalues --   -0.13624
  Beta virt. eigenvalues --    0.06444   0.07262   0.07424   0.08506   0.08922
  Beta virt. eigenvalues --    0.09319   0.10205   0.10444   0.11073   0.11534
  Beta virt. eigenvalues --    0.12079   0.12389   0.13143   0.13663   0.13925

 Mulliken charges and spin densities:
               1          2
     1  C    0.763846  -1.298876
     2  C   -1.045228   0.585183
     3  S    0.444409  -0.110702
     4  O   -0.158845   0.012282
     5  O   -0.166367   0.002367
     6  C    0.244674  -0.982212
     7  C   -0.710298   0.510274
     8  O    0.057029   0.012086
     9  C   -3.013112   2.874705
    10  C    1.006589  -1.229896
    11  N   -0.419192   0.259287
    12  C    0.763715  -1.160778
    13  C    2.763040  -3.337841
    14  H    0.085765   0.086914
    15  H   -0.402513   0.563936
    16  H   -0.042438   0.219891
    17  H   -0.019537   0.266020
    18  H    0.164685   0.074237
    19  H    0.077069   0.220543
    20  H    0.139097   0.098074
    21  H   -0.359866   0.501024
    22  H    0.351687  -0.110674
    23  H   -0.856861   1.024323
    24  H    0.080517   0.082252
    25  H   -0.039631   0.297410
    26  H    0.335697  -0.126893
    27  H   -0.511409   0.673941
    28  H   -0.003647   0.146871
    29  H   -0.250715   0.411964
    30  H   -0.278160   0.434287
 Sum of Mulliken charges =  -1.00000   1.00000

 Dipole moment (field-independent basis, Debye):
    X=              4.4891    Y=             -2.1362    Z=             -1.2726  Tot=              5.1317
 Quadrupole moment (field-independent basis, Debye-Ang):
   XX=           -171.7182   YY=           -134.3617   ZZ=           -121.9327
   XY=              6.5643   XZ=              1.6784   YZ=              1.7101

 Summary of Natural Population Analysis:

                                       Natural Population
                Natural  -----------------------------------------------
    Atom  No    Charge         Core      Valence    Rydberg      Total
 -----------------------------------------------------------------------
      C    1   -0.29868      0.99965     2.29282    0.00621     3.29868
      C    2   -0.28571      0.99959     2.27415    0.01198     3.28571
      S    3    1.01640      4.99926     1.89095    0.09338     6.98360
      O    4   -0.47562      0.99991     3.47014    0.00557     4.47562
      O    5   -0.47268      0.99991     3.46715    0.00562     4.47268
      C    6   -0.29478      0.99957     2.28319    0.01202     3.29478
      C    7   -0.02694      0.99953     2.01355    0.01386     3.02694
      O    8   -0.31694      0.99986     3.30335    0.01373     4.31694
      C    9    0.13376      0.99951     1.84770    0.01903     2.86624
      C   10   -0.09414      0.99959     2.08357    0.01098     3.09414
      N   11   -0.34756      0.99977     2.83561    0.01219     3.84756
      C   12   -0.10182      0.99959     2.09176    0.01047     3.10182
      C   13   -0.28790      0.99959     2.28134    0.00696     3.28790
      H   14    0.10589      0.00000     0.39296    0.00115     0.39411
      H   15    0.10886      0.00000     0.38978    0.00136     0.39114
      H   16    0.10748      0.00000     0.39101    0.00151     0.39252
      H   17    0.11330      0.00000     0.38550    0.00119     0.38670
      H   18    0.11939      0.00000     0.37860    0.00201     0.38061
      H   19    0.11700      0.00000     0.38178    0.00122     0.38300
      H   20    0.11981      0.00000     0.37911    0.00108     0.38019
      H   21    0.09023      0.00000     0.40841    0.00137     0.40977
      H   22    0.10528      0.00000     0.39210    0.00262     0.39472
      H   23    0.09406      0.00000     0.40269    0.00324     0.40594
      H   24    0.09044      0.00000     0.40788    0.00167     0.40956
      H   25    0.17608      0.00000     0.32152    0.00240     0.32392
      H   26    0.10074      0.00000     0.39767    0.00159     0.39926
      H   27    0.09198      0.00000     0.40623    0.00179     0.40802
      H   28    0.10175      0.00000     0.39658    0.00167     0.39825
      H   29    0.10510      0.00000     0.39341    0.00149     0.39490
      H   30    0.10521      0.00000     0.39259    0.00220     0.39479
 =======================================================================
   * Total *   -0.00000     16.99534    38.75310    0.25157    56.00000

 Normal termination of Gaussian 16 at Mon Dec 14 17:08:15 2020.
