 Gaussian 16, Revision A.03,

 -----------------------------------------------------------
 # opt freq B3LYP/6-31G(d) empiricaldispersion=gd3bj scf=xqc
 -----------------------------------------------------------

 -------------------------------
 CID_147387252_JID_1046_neutraal
 -------------------------------
 Symbolic Z-matrix:
 Charge =  0 Multiplicity = 1

 SCF Done:  E(RB3LYP) =  -468.392704396     A.U. after   12 cycles
 SCF Done:  E(RB3LYP) =  -468.394422889     A.U. after   10 cycles
 SCF Done:  E(RB3LYP) =  -468.394190956     A.U. after   10 cycles
 SCF Done:  E(RB3LYP) =  -468.394794400     A.U. after   10 cycles
 SCF Done:  E(RB3LYP) =  -468.394822581     A.U. after    9 cycles
 SCF Done:  E(RB3LYP) =  -468.394834300     A.U. after    8 cycles
 SCF Done:  E(RB3LYP) =  -468.394844538     A.U. after    9 cycles
 SCF Done:  E(RB3LYP) =  -468.394845935     A.U. after    8 cycles
 SCF Done:  E(RB3LYP) =  -468.394845937     A.U. after    7 cycles
 Optimization completed.
    -- Stationary point found.
 Normal termination of Gaussian 16 at Tue Dec  8 19:11:19 2020.

 --------------------------------------------------------------------
 #N Geom=AllCheck Guess=TCheck SCRF=Check GenChk RB3LYP/6-31G(d) Freq
 --------------------------------------------------------------------

 Structure from the checkpoint file:  "JID_1046.chk"
 -------------------------------
 CID_147387252_JID_1046_neutraal
 -------------------------------
 Charge =  0 Multiplicity = 1

 SCF Done:  E(RB3LYP) =  -468.394845937     A.U. after    1 cycles

  Exact polarizability: 114.766   0.181 102.486   0.208  -0.473  98.609
 Approx polarizability: 147.387  -0.996 148.254  -2.744  -0.719 144.283

                      1                      2                      3
                      A                      A                      A
 Frequencies --     66.4167               120.9025               131.6945
 Red. masses --      2.0431                 2.1902                 2.5800
 Frc consts  --      0.0053                 0.0189                 0.0264
 IR Inten    --      0.1724                 0.2175                 0.2349

                      4                      5                      6
                      A                      A                      A
 Frequencies --    226.4720               234.7145               245.8962
 Red. masses --      1.1645                 1.2726                 2.2565
 Frc consts  --      0.0352                 0.0413                 0.0804
 IR Inten    --      0.0404                 0.6729                 0.0870

                      7                      8                      9
                      A                      A                      A
 Frequencies --    254.2091               286.9584               303.8830
 Red. masses --      1.6630                 1.8694                 1.4950
 Frc consts  --      0.0633                 0.0907                 0.0813
 IR Inten    --      1.1507                13.8094                28.4795

                     10                     11                     12
                      A                      A                      A
 Frequencies --    316.6197               320.4724               344.9448
 Red. masses --      1.9049                 1.6105                 2.0920
 Frc consts  --      0.1125                 0.0975                 0.1467
 IR Inten    --      4.3009                40.1329                14.4964

                     13                     14                     15
                      A                      A                      A
 Frequencies --    351.7132               395.8226               415.3618
 Red. masses --      2.4936                 2.1544                 2.0775
 Frc consts  --      0.1817                 0.1989                 0.2112
 IR Inten    --      6.7861                 1.3051                 2.0149

                     16                     17                     18
                      A                      A                      A
 Frequencies --    447.7467               470.7969               495.7389
 Red. masses --      2.0535                 3.0842                 2.8730
 Frc consts  --      0.2426                 0.4028                 0.4160
 IR Inten    --      6.5419                 0.8466                 6.3476

                     19                     20                     21
                      A                      A                      A
 Frequencies --    533.1717               588.4150               704.2094
 Red. masses --      2.4825                 2.4524                 2.6948
 Frc consts  --      0.4158                 0.5003                 0.7874
 IR Inten    --      3.7705                 1.0435                 0.5895

                     22                     23                     24
                      A                      A                      A
 Frequencies --    763.2824               790.9885               842.1408
 Red. masses --      2.7857                 1.2390                 1.8859
 Frc consts  --      0.9562                 0.4567                 0.7880
 IR Inten    --      0.6116                 1.7295                 0.7161

                     25                     26                     27
                      A                      A                      A
 Frequencies --    881.6111               897.8300               920.2726
 Red. masses --      1.5466                 2.3039                 2.0407
 Frc consts  --      0.7082                 1.0942                 1.0183
 IR Inten    --      3.4871                 4.1779                 1.8116

                     28                     29                     30
                      A                      A                      A
 Frequencies --    932.8538               967.2511               979.7190
 Red. masses --      2.1101                 1.6218                 1.7554
 Frc consts  --      1.0819                 0.8940                 0.9927
 IR Inten    --     25.4173                 1.5753                 3.0761

                     31                     32                     33
                      A                      A                      A
 Frequencies --   1005.4776              1017.6518              1029.6333
 Red. masses --      1.6542                 1.6669                 1.7762
 Frc consts  --      0.9853                 1.0171                 1.1095
 IR Inten    --      2.1625                 6.5519                 2.2978

                     34                     35                     36
                      A                      A                      A
 Frequencies --   1047.5351              1074.7324              1080.0190
 Red. masses --      2.0272                 1.7558                 1.9279
 Frc consts  --      1.3106                 1.1949                 1.3249
 IR Inten    --      4.6262                 0.1721                 6.2756

                     37                     38                     39
                      A                      A                      A
 Frequencies --   1092.8067              1126.2787              1141.2675
 Red. masses --      1.6305                 1.5323                 1.5983
 Frc consts  --      1.1473                 1.1452                 1.2265
 IR Inten    --      0.8257                41.8751                49.3756

                     40                     41                     42
                      A                      A                      A
 Frequencies --   1195.3367              1215.0352              1232.4879
 Red. masses --      1.9071                 1.7336                 1.5056
 Frc consts  --      1.6055                 1.5080                 1.3475
 IR Inten    --     10.2767                 3.8750                 2.3523

                     43                     44                     45
                      A                      A                      A
 Frequencies --   1234.3436              1275.2356              1327.8819
 Red. masses --      2.4131                 1.7942                 1.4311
 Frc consts  --      2.1662                 1.7191                 1.4867
 IR Inten    --     10.5796                 2.9804                 8.0276

                     46                     47                     48
                      A                      A                      A
 Frequencies --   1334.1494              1353.0847              1361.1308
 Red. masses --      1.4091                 1.4025                 1.3344
 Frc consts  --      1.4777                 1.5129                 1.4566
 IR Inten    --      8.1182                 9.1948                 2.8769

                     49                     50                     51
                      A                      A                      A
 Frequencies --   1374.2035              1393.4805              1394.8977
 Red. masses --      1.4444                 1.4690                 1.5968
 Frc consts  --      1.6071                 1.6807                 1.8305
 IR Inten    --     20.2060                 1.3750                 1.3070

                     52                     53                     54
                      A                      A                      A
 Frequencies --   1407.5174              1425.3737              1438.3387
 Red. masses --      1.4947                 1.7042                 1.2691
 Frc consts  --      1.7447                 2.0400                 1.5470
 IR Inten    --      3.8337                17.9682                11.0282

                     55                     56                     57
                      A                      A                      A
 Frequencies --   1439.1408              1444.6430              1507.2321
 Red. masses --      1.2703                 1.2235                 1.0819
 Frc consts  --      1.5502                 1.5044                 1.4481
 IR Inten    --      1.4215                 5.1714                 0.5900

                     58                     59                     60
                      A                      A                      A
 Frequencies --   1510.3086              1511.9063              1515.2193
 Red. masses --      1.0724                 1.0774                 1.0708
 Frc consts  --      1.4412                 1.4510                 1.4484
 IR Inten    --      0.8015                 0.7884                 2.5104

                     61                     62                     63
                      A                      A                      A
 Frequencies --   1525.8405              1527.1638              1532.2817
 Red. masses --      1.0658                 1.0606                 1.0615
 Frc consts  --      1.4620                 1.4573                 1.4685
 IR Inten    --      3.1431                 1.1008                 7.2240

                     64                     65                     66
                      A                      A                      A
 Frequencies --   1536.2798              1539.6421              1542.9614
 Red. masses --      1.0477                 1.0778                 1.0857
 Frc consts  --      1.4568                 1.5053                 1.5229
 IR Inten    --      7.6147                14.0667                 1.1264

                     67                     68                     69
                      A                      A                      A
 Frequencies --   1547.1594              3012.3672              3026.1636
 Red. masses --      1.0536                 1.0651                 1.0671
 Frc consts  --      1.4860                 5.6946                 5.7576
 IR Inten    --      0.9954                28.8760                22.7628

                     70                     71                     72
                      A                      A                      A
 Frequencies --   3035.2957              3043.0406              3043.9080
 Red. masses --      1.0656                 1.0410                 1.0595
 Frc consts  --      5.7844                 5.6797                 5.7837
 IR Inten    --     15.7886                32.7177                26.6697

                     73                     74                     75
                      A                      A                      A
 Frequencies --   3045.2422              3049.3871              3054.3316
 Red. masses --      1.0570                 1.0534                 1.0381
 Frc consts  --      5.7752                 5.7714                 5.7059
 IR Inten    --     24.8815                20.8576                21.9248

                     76                     77                     78
                      A                      A                      A
 Frequencies --   3068.6093              3077.6852              3079.4189
 Red. masses --      1.0963                 1.0914                 1.1005
 Frc consts  --      6.0824                 6.0910                 6.1488
 IR Inten    --     17.6913                43.0851                55.5303

                     79                     80                     81
                      A                      A                      A
 Frequencies --   3091.4944              3103.3327              3106.2057
 Red. masses --      1.1041                 1.0936                 1.0998
 Frc consts  --      6.2175                 6.2054                 6.2522
 IR Inten    --     40.8053                18.7630                30.5998

                     82                     83                     84
                      A                      A                      A
 Frequencies --   3113.4370              3115.5762              3119.4592
 Red. masses --      1.1006                 1.0971                 1.1003
 Frc consts  --      6.2858                 6.2747                 6.3083
 IR Inten    --     48.2590                21.2942                45.4039

                     85                     86                     87
                      A                      A                      A
 Frequencies --   3131.7477              3151.3678              3721.2917
 Red. masses --      1.1008                 1.0964                 1.0659
 Frc consts  --      6.3612                 6.4152                 8.6964
 IR Inten    --     58.6100                30.7121                 4.1614

 - Thermochemistry -
 -------------------
 Temperature   298.150 Kelvin.  Pressure   1.00000 Atm.
 Atom     1 has atomic number  6 and mass  12.00000

 Molecular mass:   156.15142 amu.
 Principal axes and moments of inertia in atomic units:
                           1         2         3
     Eigenvalues --  1095.954022379.840692430.48867
           X            0.99992   0.00716   0.01046
           Y           -0.00678   0.99934  -0.03558
           Z           -0.01071   0.03550   0.99931
 This molecule is an asymmetric top.
 Rotational symmetry number  1.
 Warning -- assumption of classical behavior for rotation
           may cause significant error
 Rotational temperatures (Kelvin)      0.07903     0.03639     0.03564
 Rotational constants (GHZ):           1.64673     0.75835     0.74254
 Zero-point vibrational energy     757709.6 (Joules/Mol)
                                  181.09694 (Kcal/Mol)
 Warning -- explicit consideration of  20 degrees of freedom as
           vibrations may cause significant error
 Vibrational temperatures:     95.56   173.95   189.48   325.84   337.70
          (Kelvin)            353.79   365.75   412.87   437.22   455.55
                              461.09   496.30   506.04   569.50   597.61
                              644.21   677.37   713.26   767.12   846.60
                             1013.20  1098.19  1138.06  1211.65  1268.44
                             1291.78  1324.07  1342.17  1391.66  1409.60
                             1446.66  1464.17  1481.41  1507.17  1546.30
                             1553.91  1572.31  1620.46  1642.03  1719.82
                             1748.16  1773.28  1775.95  1834.78  1910.53
                             1919.54  1946.79  1958.36  1977.17  2004.91
                             2006.95  2025.10  2050.79  2069.45  2070.60
                             2078.52  2168.57  2173.00  2175.30  2180.06
                             2195.34  2197.25  2204.61  2210.36  2215.20
                             2219.98  2226.02  4334.12  4353.97  4367.11
                             4378.26  4379.50  4381.42  4387.39  4394.50
                             4415.04  4428.10  4430.60  4447.97  4465.00
                             4469.14  4479.54  4482.62  4488.21  4505.89
                             4534.12  5354.11

 Zero-point correction=                           0.288596 (Hartree/Particle)
 Thermal correction to Energy=                    0.300806
 Thermal correction to Enthalpy=                  0.301750
 Thermal correction to Gibbs Free Energy=         0.252042
 Sum of electronic and zero-point Energies=           -468.106250
 Sum of electronic and thermal Energies=              -468.094040
 Sum of electronic and thermal Enthalpies=            -468.093096
 Sum of electronic and thermal Free Energies=         -468.142804

                     E (Thermal)             CV                S
                      KCal/Mol        Cal/Mol-Kelvin    Cal/Mol-Kelvin
 Total                  188.758             49.142            104.618
 Electronic               0.000              0.000              0.000
 Translational            0.889              2.981             41.046
 Rotational               0.889              2.981             30.229
 Vibrational            186.981             43.180             33.343
 Vibration     1          0.598              1.970              4.257
 Vibration     2          0.609              1.932              3.086
 Vibration     3          0.612              1.922              2.921
 Vibration     4          0.650              1.801              1.907
 Vibration     5          0.655              1.788              1.843
 Vibration     6          0.660              1.770              1.760
 Vibration     7          0.665              1.756              1.701
 Vibration     8          0.684              1.698              1.492
 Vibration     9          0.695              1.666              1.395
 Vibration    10          0.703              1.642              1.328
 Vibration    11          0.706              1.634              1.308
 Vibration    12          0.723              1.586              1.189
 Vibration    13          0.728              1.572              1.159
 Vibration    14          0.763              1.479              0.978
 Vibration    15          0.779              1.437              0.908
 Vibration    16          0.807              1.366              0.803
 Vibration    17          0.828              1.315              0.735
 Vibration    18          0.851              1.259              0.669
 Vibration    19          0.888              1.177              0.580
 Vibration    20          0.946              1.056              0.470

                           ! Non-Optimized Parameters !
 Normal termination of Gaussian 16 at Tue Dec  8 19:18:52 2020.

 ----------------------------------------------------------------------
 # B3LYP/6-311++G(d,p) empiricaldispersion=gd3bj scf=xqc pop=npa geom=c
 heck
 ----------------------------------------------------------------------

 ---------------------------------------
 CID_147387252_JID_1046_Energie_neutraal
 ---------------------------------------
 Structure from the checkpoint file:  "JID_1046.chk"
 Charge =  0 Multiplicity = 1

 SCF Done:  E(RB3LYP) =  -468.535317122     A.U. after   13 cycles
 Normal termination of Gaussian 16 at Tue Dec  8 19:21:36 2020.

 ----------------------------------------------------------------------
 # B3LYP/6-311++G(d,p) empiricaldispersion=gd3bj scf=xqc pop=npa geom=c
 heck
 ----------------------------------------------------------------------

 -------------------------------------
 CID_147387252_JID_1046_Energie_kation
 -------------------------------------
 Structure from the checkpoint file:  "JID_1046.chk"
 Charge =  1 Multiplicity = 2

 SCF Done:  E(UB3LYP) =  -468.190427762     A.U. after   26 cycles
 Normal termination of Gaussian 16 at Tue Dec  8 19:28:47 2020.
 Gaussian 16:  ES64L-G16RevA.03 25-Dec-2016

 ----------------------------------------------------------------------
 # B3LYP/6-311++G(d,p) empiricaldispersion=gd3bj scf=xqc pop=npa geom=c
 heck
 ----------------------------------------------------------------------

 ------------------------------------
 CID_147387252_JID_1046_Energie_anion
 ------------------------------------
 Structure from the checkpoint file:  "JID_1046.chk"
 Charge = -1 Multiplicity = 2

                         Standard orientation:
 ---------------------------------------------------------------------
 Center     Atomic      Atomic             Coordinates (Angstroms)
 Number     Number       Type             X           Y           Z
 ---------------------------------------------------------------------
      1          6           0       -3.030578   -0.114415    1.143704
      2          6           0       -1.578957   -0.549489    0.911465
      3          6           0       -0.974157   -0.205107   -0.474604
      4          6           0       -0.798754    1.319843   -0.658897
      5          6           0        0.335000    1.911174    0.187069
      6          6           0        1.672066    1.234025   -0.131864
      7          6           0        1.629271   -0.285048    0.074005
      8          6           0        0.409351   -0.881574   -0.664416
      9          6           0        1.715146   -0.658869    1.559205
     10          8           0        2.820880   -0.778248   -0.570751
     11          6           0       -1.902858   -0.739944   -1.580103
     12          1           0       -3.162626    0.963613    0.998850
     13          1           0       -3.333275   -0.344159    2.171427
     14          1           0       -3.727682   -0.628297    0.474626
     15          1           0       -0.965260   -0.107950    1.701179
     16          1           0       -1.509484   -1.637193    1.051536
     17          1           0       -0.576885    1.514403   -1.718070
     18          1           0       -1.743161    1.834785   -0.446027
     19          1           0        0.103482    1.812267    1.255586
     20          1           0        0.415576    2.987680   -0.005826
     21          1           0        2.485870    1.658672    0.467837
     22          1           0        1.926784    1.411990   -1.184462
     23          1           0        0.328299   -1.953020   -0.425652
     24          1           0        0.666391   -0.820335   -1.729200
     25          1           0        1.595291   -1.741258    1.697246
     26          1           0        2.700072   -0.370161    1.939842
     27          1           0        0.955948   -0.164898    2.169585
     28          1           0        2.833949   -1.741008   -0.444906
     29          1           0       -2.090901   -1.813723   -1.454324
     30          1           0       -2.870172   -0.227167   -1.578573
     31          1           0       -1.452433   -0.591835   -2.568053
 ---------------------------------------------------------------------

 SCF Done:  E(UB3LYP) =  -468.519209804     A.U. after   27 cycles

 The electronic state is 2-A.
 Alpha  occ. eigenvalues --  -19.01198 -10.12043 -10.07622 -10.06149 -10.05752
 Alpha  occ. eigenvalues --  -10.05743 -10.05487 -10.05466 -10.05125 -10.05106
 Alpha  occ. eigenvalues --  -10.04983  -0.91521  -0.73818  -0.68107  -0.64420
 Alpha  occ. eigenvalues --   -0.62914  -0.58163  -0.57446  -0.52345  -0.50865
 Alpha  occ. eigenvalues --   -0.45643  -0.41509  -0.39286  -0.37283  -0.35640
 Alpha  occ. eigenvalues --   -0.35126  -0.33574  -0.32471  -0.30850  -0.30089
 Alpha  occ. eigenvalues --   -0.28946  -0.27899  -0.27599  -0.26797  -0.25965
 Alpha  occ. eigenvalues --   -0.25675  -0.24582  -0.23184  -0.22859  -0.21855
 Alpha  occ. eigenvalues --   -0.20828  -0.19945  -0.19203  -0.16591   0.04719
 Alpha virt. eigenvalues --    0.07038   0.07528   0.07812   0.09280   0.09586
 Alpha virt. eigenvalues --    0.09989   0.10155   0.10460   0.11980   0.12410
 Alpha virt. eigenvalues --    0.12627   0.12734   0.13421   0.13600   0.14046

  Beta  occ. eigenvalues --  -19.01175 -10.12042 -10.07622 -10.06131 -10.05739
  Beta  occ. eigenvalues --  -10.05724 -10.05465 -10.05446 -10.05090 -10.05082
  Beta  occ. eigenvalues --  -10.04947  -0.91476  -0.73795  -0.68078  -0.64382
  Beta  occ. eigenvalues --   -0.62871  -0.58106  -0.57401  -0.52267  -0.50805
  Beta  occ. eigenvalues --   -0.45586  -0.41454  -0.39237  -0.37248  -0.35603
  Beta  occ. eigenvalues --   -0.35090  -0.33550  -0.32435  -0.30812  -0.30056
  Beta  occ. eigenvalues --   -0.28911  -0.27861  -0.27563  -0.26766  -0.25934
  Beta  occ. eigenvalues --   -0.25623  -0.24549  -0.23146  -0.22827  -0.21824
  Beta  occ. eigenvalues --   -0.20796  -0.19917  -0.19165  -0.16566
  Beta virt. eigenvalues --    0.06943   0.08018   0.08167   0.08419   0.09901
  Beta virt. eigenvalues --    0.10173   0.10421   0.10553   0.10943   0.12493
  Beta virt. eigenvalues --    0.12805   0.12987   0.13147   0.13677   0.14003

 Mulliken charges and spin densities:
               1          2
     1  C    1.161206  -1.849036
     2  C   -0.815027   0.452920
     3  C   -0.689048   1.635372
     4  C    0.087598  -0.641311
     5  C   -0.361914   0.036494
     6  C    0.733323  -0.921762
     7  C   -1.467777   1.371701
     8  C    0.591999  -1.236571
     9  C    0.792741  -1.343741
    10  O   -0.187120   0.014461
    11  C    1.103771  -1.588842
    12  H   -0.228330   0.362018
    13  H   -0.391371   0.537432
    14  H   -0.257532   0.404713
    15  H    0.536048  -0.444864
    16  H   -0.181957   0.349427
    17  H    0.022200   0.118756
    18  H   -0.059519   0.213405
    19  H   -0.030885   0.162744
    20  H   -0.105236   0.281754
    21  H   -0.013888   0.169596
    22  H    0.076784   0.104147
    23  H   -0.200370   0.380054
    24  H    0.076503   0.103568
    25  H   -0.211696   0.372062
    26  H   -0.302578   0.468795
    27  H   -0.317658   0.453503
    28  H   -0.038359   0.287926
    29  H   -0.236557   0.396477
    30  H   -0.065643   0.200048
    31  H   -0.019709   0.148753
 Sum of Mulliken charges =  -1.00000   1.00000

 Dipole moment (field-independent basis, Debye):
    X=              1.2426    Y=              2.3713    Z=             -1.9180  Tot=              3.2933
 Quadrupole moment (field-independent basis, Debye-Ang):
   XX=           -133.6080   YY=           -113.2478   ZZ=           -110.3533
   XY=              0.8654   XZ=              2.4925   YZ=              1.2684

 Summary of Natural Population Analysis:

                                       Natural Population
                Natural  -----------------------------------------------
    Atom  No    Charge         Core      Valence    Rydberg      Total
 -----------------------------------------------------------------------
      C    1   -0.28524      0.99966     2.28039    0.00519     3.28524
      C    2   -0.19012      0.99958     2.18021    0.01032     3.19012
      C    3   -0.04171      0.99956     2.02891    0.01325     3.04171
      C    4   -0.18823      0.99958     2.17879    0.00986     3.18823
      C    5   -0.19122      0.99962     2.18314    0.00846     3.19122
      C    6   -0.19207      0.99957     2.18343    0.00907     3.19207
      C    7    0.12944      0.99952     1.85621    0.01483     2.87056
      C    8   -0.20028      0.99955     2.18795    0.01278     3.20028
      C    9   -0.29666      0.99961     2.29003    0.00703     3.29666
      O   10   -0.37848      0.99989     3.37212    0.00647     4.37848
      C   11   -0.28393      0.99963     2.27652    0.00778     3.28393
      H   12    0.09551      0.00000     0.40326    0.00123     0.40449
      H   13    0.10029      0.00000     0.39873    0.00099     0.39971
      H   14    0.09677      0.00000     0.40209    0.00115     0.40323
      H   15    0.09682      0.00000     0.40121    0.00197     0.40318
      H   16    0.09804      0.00000     0.40038    0.00158     0.40196
      H   17    0.09511      0.00000     0.40366    0.00123     0.40489
      H   18    0.10201      0.00000     0.39689    0.00111     0.39799
      H   19    0.09540      0.00000     0.40294    0.00166     0.40460
      H   20    0.09823      0.00000     0.40088    0.00090     0.40177
      H   21    0.10122      0.00000     0.39778    0.00100     0.39878
      H   22    0.10071      0.00000     0.39795    0.00135     0.39929
      H   23    0.10190      0.00000     0.39628    0.00182     0.39810
      H   24    0.10367      0.00000     0.39470    0.00163     0.39633
      H   25    0.10086      0.00000     0.39749    0.00164     0.39914
      H   26    0.10278      0.00000     0.39598    0.00124     0.39722
      H   27    0.10157      0.00000     0.39689    0.00155     0.39843
      H   28    0.22772      0.00000     0.26907    0.00321     0.27228
      H   29    0.10099      0.00000     0.39797    0.00104     0.39901
      H   30    0.10087      0.00000     0.39809    0.00104     0.39913
      H   31    0.09805      0.00000     0.40098    0.00097     0.40195
 =======================================================================
   * Total *    0.00000     10.99577    32.87090    0.13333    44.00000

 Normal termination of Gaussian 16 at Tue Dec  8 19:36:09 2020.
