 Gaussian 16, Revision A.03,

 -----------------------------------------------------------
 # opt freq B3LYP/6-31G(d) empiricaldispersion=gd3bj scf=xqc
 -----------------------------------------------------------

 -------------------------------
 CID_138779331_JID_3056_neutraal
 -------------------------------
 Symbolic Z-matrix:
 Charge =  0 Multiplicity = 1

 SCF Done:  E(RB3LYP) =  -1004.94967997     A.U. after   15 cycles
 SCF Done:  E(RB3LYP) =  -1004.96036550     A.U. after   13 cycles
 SCF Done:  E(RB3LYP) =  -1004.96147809     A.U. after   13 cycles
 SCF Done:  E(RB3LYP) =  -1004.96294181     A.U. after   13 cycles
 SCF Done:  E(RB3LYP) =  -1004.96373660     A.U. after   12 cycles
 SCF Done:  E(RB3LYP) =  -1004.96479714     A.U. after   14 cycles
 SCF Done:  E(RB3LYP) =  -1004.96550371     A.U. after   13 cycles
 SCF Done:  E(RB3LYP) =  -1004.96584862     A.U. after   13 cycles
 SCF Done:  E(RB3LYP) =  -1004.96594944     A.U. after   12 cycles
 SCF Done:  E(RB3LYP) =  -1004.96606230     A.U. after   12 cycles
 SCF Done:  E(RB3LYP) =  -1004.96611932     A.U. after   10 cycles
 SCF Done:  E(RB3LYP) =  -1004.96612159     A.U. after   10 cycles
 SCF Done:  E(RB3LYP) =  -1004.96612236     A.U. after    9 cycles
 SCF Done:  E(RB3LYP) =  -1004.96612272     A.U. after    9 cycles
 SCF Done:  E(RB3LYP) =  -1004.96612275     A.U. after    7 cycles
 Optimization completed.
    -- Stationary point found.
 Normal termination of Gaussian 16 at Wed Dec  9 22:23:16 2020.

 --------------------------------------------------------------------
 #N Geom=AllCheck Guess=TCheck SCRF=Check GenChk RB3LYP/6-31G(d) Freq
 --------------------------------------------------------------------

 Structure from the checkpoint file:  "JID_3056.chk"
 -------------------------------
 CID_138779331_JID_3056_neutraal
 -------------------------------
 Charge =  0 Multiplicity = 1

 SCF Done:  E(RB3LYP) =  -1004.96612275     A.U. after    1 cycles

  Exact polarizability: 129.327   9.982 103.611   4.698  -6.894  84.284
 Approx polarizability: 202.858  29.925 144.381   9.912 -22.834 157.195

                      1                      2                      3
                      A                      A                      A
 Frequencies --     30.1740                49.6287                69.3794
 Red. masses --      8.9718                 5.3251                 5.1754
 Frc consts  --      0.0048                 0.0077                 0.0147
 IR Inten    --      0.5914                 2.9522                 1.2974

                      4                      5                      6
                      A                      A                      A
 Frequencies --     92.8316                94.1955               131.5481
 Red. masses --      4.8323                 3.3847                 1.2251
 Frc consts  --      0.0245                 0.0177                 0.0125
 IR Inten    --      0.1995                 2.5018                 0.0886

                      7                      8                      9
                      A                      A                      A
 Frequencies --    163.0368               181.5643               188.4578
 Red. masses --      3.2589                 4.7600                 1.1208
 Frc consts  --      0.0510                 0.0925                 0.0235
 IR Inten    --      2.1723                 1.9840                 0.7728

                     10                     11                     12
                      A                      A                      A
 Frequencies --    285.1627               329.6359               354.5931
 Red. masses --      5.7530                 5.0817                10.3614
 Frc consts  --      0.2756                 0.3253                 0.7676
 IR Inten    --      0.4326                18.9564                 2.3020

                     13                     14                     15
                      A                      A                      A
 Frequencies --    377.6106               423.1894               440.5800
 Red. masses --      3.7914                10.2300                 6.9409
 Frc consts  --      0.3185                 1.0794                 0.7938
 IR Inten    --      3.3692                 2.8656                 2.6018

                     16                     17                     18
                      A                      A                      A
 Frequencies --    545.2291               576.3623               597.1857
 Red. masses --      4.6523                 3.0414                 3.9450
 Frc consts  --      0.8148                 0.5953                 0.8289
 IR Inten    --      4.7547                 3.8492                38.8191

                     19                     20                     21
                      A                      A                      A
 Frequencies --    643.8634               652.6312               738.7390
 Red. masses --      7.8834                 6.5942                 1.3441
 Frc consts  --      1.9255                 1.6548                 0.4322
 IR Inten    --      5.7485                 8.5785                35.5720

                     22                     23                     24
                      A                      A                      A
 Frequencies --    752.4245               763.0584               790.4634
 Red. masses --      8.2738                 9.9174                 5.8918
 Frc consts  --      2.7598                 3.4022                 2.1690
 IR Inten    --     10.1166                27.1713                13.8764

                     25                     26                     27
                      A                      A                      A
 Frequencies --    884.8550               897.1323               919.5909
 Red. masses --      4.7614                 1.3177                 6.0683
 Frc consts  --      2.1965                 0.6249                 3.0235
 IR Inten    --      6.5155                 0.7360                10.1086

                     28                     29                     30
                      A                      A                      A
 Frequencies --    959.0756              1023.6035              1070.0044
 Red. masses --      4.3137                 2.8681                 1.7488
 Frc consts  --      2.3378                 1.7705                 1.1797
 IR Inten    --     22.6230                77.5467                 8.5245

                     31                     32                     33
                      A                      A                      A
 Frequencies --   1094.4582              1116.0759              1181.3865
 Red. masses --      1.5123                 3.7619                 1.9351
 Frc consts  --      1.0673                 2.7609                 1.5913
 IR Inten    --     16.2845                75.4104                76.2815

                     34                     35                     36
                      A                      A                      A
 Frequencies --   1189.2329              1220.8703              1250.1762
 Red. masses --      1.2707                 1.5401                 4.2952
 Frc consts  --      1.0588                 1.3525                 3.9552
 IR Inten    --      0.6201                61.8026               136.2351

                     37                     38                     39
                      A                      A                      A
 Frequencies --   1276.3332              1301.5520              1360.3456
 Red. masses --      7.6427                 7.8231                 2.0041
 Frc consts  --      7.3354                 7.8082                 2.1850
 IR Inten    --    841.1623                86.7581                 8.4010

                     40                     41                     42
                      A                      A                      A
 Frequencies --   1420.6870              1489.1731              1493.7644
 Red. masses --      1.2760                 3.5580                 1.2406
 Frc consts  --      1.5174                 4.6488                 1.6310
 IR Inten    --     38.1695                28.1964                10.9929

                     43                     44                     45
                      A                      A                      A
 Frequencies --   1502.6993              1505.6144              1512.1666
 Red. masses --      1.1306                 1.0649                 1.0476
 Frc consts  --      1.5041                 1.4222                 1.4114
 IR Inten    --     21.6290                13.3651                 5.4784

                     46                     47                     48
                      A                      A                      A
 Frequencies --   1525.7899              1572.7272              1819.3707
 Red. masses --      1.0503                 6.8475                11.8315
 Frc consts  --      1.4406                 9.9791                23.0744
 IR Inten    --      6.6848                80.6877                35.1969

                     49                     50                     51
                      A                      A                      A
 Frequencies --   1889.2034              3075.6781              3081.0083
 Red. masses --     11.8525                 1.0368                 1.0294
 Frc consts  --     24.9240                 5.7789                 5.7570
 IR Inten    --    549.5229                 2.4232                32.3020

                     52                     53                     54
                      A                      A                      A
 Frequencies --   3143.9440              3158.5987              3182.7924
 Red. masses --      1.1001                 1.1080                 1.1035
 Frc consts  --      6.4067                 6.5131                 6.5865
 IR Inten    --      3.2398                16.1702                 7.8692

                     55                     56                     57
                      A                      A                      A
 Frequencies --   3190.0700              3241.3105              3280.2394
 Red. masses --      1.1074                 1.0913                 1.0984
 Frc consts  --      6.6399                 6.7552                 6.9637
 IR Inten    --     12.5805                 6.0501                 1.2906

 - Thermochemistry -
 -------------------
 Temperature   298.150 Kelvin.  Pressure   1.00000 Atm.
 Atom     1 has atomic number  6 and mass  12.00000

 Molecular mass:   200.02556 amu.
 Principal axes and moments of inertia in atomic units:
                           1         2         3
     Eigenvalues --  1924.339712726.889673999.64608
           X            0.99610  -0.08817   0.00308
           Y            0.08812   0.99603   0.01250
           Z           -0.00417  -0.01218   0.99992
 This molecule is an asymmetric top.
 Rotational symmetry number  1.
 Warning -- assumption of classical behavior for rotation
           may cause significant error
 Rotational temperatures (Kelvin)      0.04501     0.03176     0.02166
 Rotational constants (GHZ):           0.93785     0.66183     0.45123
 Zero-point vibrational energy     401353.6 (Joules/Mol)
                                   95.92580 (Kcal/Mol)
 Warning -- explicit consideration of  18 degrees of freedom as
           vibrations may cause significant error
 Vibrational temperatures:     43.41    71.40    99.82   133.56   135.53
          (Kelvin)            189.27   234.57   261.23   271.15   410.29
                              474.27   510.18   543.30   608.88   633.90
                              784.46   829.26   859.22   926.38   938.99
                             1062.88  1082.57  1097.87  1137.30  1273.11
                             1290.77  1323.09  1379.90  1472.74  1539.50
                             1574.68  1605.78  1699.75  1711.04  1756.56
                             1798.72  1836.36  1872.64  1957.23  2044.05
                             2142.59  2149.19  2162.05  2166.24  2175.67
                             2195.27  2262.80  2617.67  2718.14  4425.21
                             4432.88  4523.43  4544.52  4579.33  4589.80
                             4663.52  4719.53

 Zero-point correction=                           0.152867 (Hartree/Particle)
 Thermal correction to Energy=                    0.165854
 Thermal correction to Enthalpy=                  0.166798
 Thermal correction to Gibbs Free Energy=         0.111582
 Sum of electronic and zero-point Energies=          -1004.813255
 Sum of electronic and thermal Energies=             -1004.800269
 Sum of electronic and thermal Enthalpies=           -1004.799325
 Sum of electronic and thermal Free Energies=        -1004.854541

                     E (Thermal)             CV                S
                      KCal/Mol        Cal/Mol-Kelvin    Cal/Mol-Kelvin
 Total                  104.075             45.533            116.212
 Electronic               0.000              0.000              0.000
 Translational            0.889              2.981             41.785
 Rotational               0.889              2.981             31.418
 Vibrational            102.297             39.571             43.009
 Vibration     1          0.594              1.984              5.818
 Vibration     2          0.595              1.978              4.832
 Vibration     3          0.598              1.969              4.171
 Vibration     4          0.602              1.954              3.599
 Vibration     5          0.603              1.953              3.571
 Vibration     6          0.612              1.922              2.923
 Vibration     7          0.623              1.888              2.514
 Vibration     8          0.630              1.865              2.312
 Vibration     9          0.633              1.856              2.243
 Vibration    10          0.683              1.701              1.503
 Vibration    11          0.712              1.616              1.262
 Vibration    12          0.730              1.566              1.146
 Vibration    13          0.748              1.518              1.049
 Vibration    14          0.785              1.420              0.881
 Vibration    15          0.800              1.382              0.825
 Vibration    16          0.900              1.150              0.554
 Vibration    17          0.933              1.082              0.492
 Vibration    18          0.955              1.038              0.455

                           ! Non-Optimized Parameters !
 Normal termination of Gaussian 16 at Wed Dec  9 22:27:51 2020.

 ----------------------------------------------------------------------
 # B3LYP/6-311++G(d,p) empiricaldispersion=gd3bj scf=xqc pop=npa geom=c
 heck
 ----------------------------------------------------------------------

 ---------------------------------------
 CID_138779331_JID_3056_Energie_neutraal
 ---------------------------------------
 Structure from the checkpoint file:  "JID_3056.chk"
 Charge =  0 Multiplicity = 1

 SCF Done:  E(RB3LYP) =  -1005.16854241     A.U. after   15 cycles
 Normal termination of Gaussian 16 at Wed Dec  9 22:29:26 2020.

 ----------------------------------------------------------------------
 # B3LYP/6-311++G(d,p) empiricaldispersion=gd3bj scf=xqc pop=npa geom=c
 heck
 ----------------------------------------------------------------------

 -------------------------------------
 CID_138779331_JID_3056_Energie_kation
 -------------------------------------
 Structure from the checkpoint file:  "JID_3056.chk"
 Charge =  1 Multiplicity = 2

 SCF Done:  E(UB3LYP) =  -1004.84285365     A.U. after   24 cycles
 Normal termination of Gaussian 16 at Wed Dec  9 22:32:58 2020.
 Gaussian 16:  ES64L-G16RevA.03 25-Dec-2016

 ----------------------------------------------------------------------
 # B3LYP/6-311++G(d,p) empiricaldispersion=gd3bj scf=xqc pop=npa geom=c
 heck
 ----------------------------------------------------------------------

 ------------------------------------
 CID_138779331_JID_3056_Energie_anion
 ------------------------------------
 Structure from the checkpoint file:  "JID_3056.chk"
 Charge = -1 Multiplicity = 2

                         Standard orientation:
 ---------------------------------------------------------------------
 Center     Atomic      Atomic             Coordinates (Angstroms)
 Number     Number       Type             X           Y           Z
 ---------------------------------------------------------------------
      1          6           0       -0.385699    2.802789    0.199955
      2          6           0        0.837920    1.930203    0.015029
      3          8           0        1.952612    2.369005   -0.117414
      4          7           0        0.574875    0.516605    0.005261
      5          6           0       -0.746120    0.053453   -0.162673
      6          7           0       -1.458184    0.254402   -1.231110
      7          6           0       -2.728276   -0.250330   -1.074050
      8          6           0       -2.992533   -0.842800    0.128112
      9         16           0       -1.592700   -0.762699    1.146164
     10          6           0        1.639973   -0.417886    0.027378
     11          8           0        2.771209   -0.188154    0.366548
     12          8           0        1.178362   -1.623990   -0.366815
     13          6           0        2.155223   -2.676593   -0.324002
     14          1           0       -0.036259    3.815092    0.404952
     15          1           0       -1.018281    2.448979    1.020119
     16          1           0       -0.992579    2.802089   -0.709884
     17          1           0       -3.432674   -0.163969   -1.892524
     18          1           0       -3.904575   -1.320675    0.457616
     19          1           0        2.982753   -2.453894   -1.001497
     20          1           0        2.543744   -2.796775    0.690262
     21          1           0        1.623840   -3.572613   -0.643776
 ---------------------------------------------------------------------

 SCF Done:  E(UB3LYP) =  -1005.16886050     A.U. after   33 cycles
 SCF Done:  E(UB3LYP) =  -1005.16886050     a.u. after    1 cycles

 The electronic state is 2-A.
 Alpha  occ. eigenvalues --  -88.73002 -19.05429 -18.99075 -18.98200 -14.24241
 Alpha  occ. eigenvalues --  -14.16241 -10.21020 -10.16390 -10.11571 -10.09614
 Alpha  occ. eigenvalues --  -10.06007 -10.05755 -10.04757  -7.81660  -5.77939
 Alpha  occ. eigenvalues --   -5.77609  -5.77271  -1.00381  -0.93634  -0.90936
 Alpha  occ. eigenvalues --   -0.84646  -0.79141  -0.65493  -0.64101  -0.61227
 Alpha  occ. eigenvalues --   -0.59425  -0.50748  -0.48387  -0.44858  -0.43614
 Alpha  occ. eigenvalues --   -0.38064  -0.37258  -0.37069  -0.35499  -0.33828
 Alpha  occ. eigenvalues --   -0.33227  -0.32540  -0.30301  -0.30145  -0.28600
 Alpha  occ. eigenvalues --   -0.27987  -0.26974  -0.25410  -0.24867  -0.22508
 Alpha  occ. eigenvalues --   -0.19730  -0.18386  -0.16601  -0.14916  -0.14346
 Alpha  occ. eigenvalues --   -0.13802  -0.10758   0.05194
 Alpha virt. eigenvalues --    0.07416   0.08833   0.09550   0.09986   0.10691
 Alpha virt. eigenvalues --    0.11072   0.11342   0.12443   0.13090   0.13500
 Alpha virt. eigenvalues --    0.14233   0.15319   0.15509   0.15985   0.17512

  Beta  occ. eigenvalues --  -88.72950 -19.05427 -18.99071 -18.98121 -14.24296
  Beta  occ. eigenvalues --  -14.16114 -10.20979 -10.16287 -10.11530 -10.09087
  Beta  occ. eigenvalues --  -10.06046 -10.05757 -10.04406  -7.81613  -5.77925
  Beta  occ. eigenvalues --   -5.77595  -5.77079  -1.00352  -0.93484  -0.90906
  Beta  occ. eigenvalues --   -0.84246  -0.78938  -0.65088  -0.63959  -0.61133
  Beta  occ. eigenvalues --   -0.58976  -0.50581  -0.47917  -0.44528  -0.43502
  Beta  occ. eigenvalues --   -0.37977  -0.37001  -0.36894  -0.35448  -0.33670
  Beta  occ. eigenvalues --   -0.33105  -0.32396  -0.30191  -0.30027  -0.28532
  Beta  occ. eigenvalues --   -0.27766  -0.26173  -0.25118  -0.24462  -0.22133
  Beta  occ. eigenvalues --   -0.19712  -0.18326  -0.16344  -0.14438  -0.13650
  Beta  occ. eigenvalues --   -0.13338  -0.09146
  Beta virt. eigenvalues --    0.07883   0.08673   0.09460   0.10130   0.10672
  Beta virt. eigenvalues --    0.11446   0.11511   0.11697   0.12477   0.13134
  Beta virt. eigenvalues --    0.13567   0.14370   0.15394   0.15931   0.16015

 Mulliken charges and spin densities:
               1          2
     1  C   -0.343246  -0.171195
     2  C    0.122312   0.138750
     3  O   -0.292446   0.022576
     4  N    0.123694  -0.024720
     5  C   -0.449085   0.141708
     6  N   -0.209009   0.099332
     7  C   -0.382043   0.015362
     8  C   -0.179771   0.180734
     9  S   -0.105291   0.199003
    10  C    0.325930   0.030956
    11  O   -0.267343   0.014896
    12  O   -0.098572   0.053510
    13  C    0.537833  -0.751345
    14  H    0.146982   0.018330
    15  H    0.121279   0.040346
    16  H    0.088639   0.101434
    17  H    0.109110   0.001845
    18  H    0.172461  -0.017075
    19  H   -0.093584   0.262389
    20  H   -0.148695   0.321179
    21  H   -0.179154   0.321985
 Sum of Mulliken charges =  -1.00000   1.00000

 Dipole moment (field-independent basis, Debye):
    X=             -2.8917    Y=              0.2751    Z=              0.8335  Tot=              3.0220
 Quadrupole moment (field-independent basis, Debye-Ang):
   XX=           -119.0624   YY=           -110.0432   ZZ=            -97.1228
   XY=             -2.1447   XZ=             -1.9632   YZ=              1.6071

 Summary of Natural Population Analysis:

                                       Natural Population
                Natural  -----------------------------------------------
    Atom  No    Charge         Core      Valence    Rydberg      Total
 -----------------------------------------------------------------------
      C    1   -0.33918      0.99962     2.33494    0.00462     3.33918
      C    2    0.37479      0.99971     1.60189    0.02361     2.62521
      O    3   -0.28270      0.99987     3.27731    0.00552     4.28270
      N    4   -0.29511      0.99955     2.78428    0.01128     3.79511
      C    5    0.18838      0.99959     1.78997    0.02206     2.81162
      N    6   -0.23764      0.99963     2.72700    0.01101     3.73764
      C    7   -0.04420      0.99954     2.02758    0.01708     3.04420
      C    8   -0.15509      0.99955     2.14705    0.00850     3.15509
      S    9    0.18721      4.99941     2.79213    0.02125     7.81279
      C   10    0.48099      0.99970     1.49312    0.02619     2.51901
      O   11   -0.30318      0.99986     3.29829    0.00502     4.30318
      O   12   -0.27325      0.99986     3.26518    0.00821     4.27325
      C   13   -0.10145      0.99960     2.09281    0.00904     3.10145
      H   14    0.10445      0.00000     0.39442    0.00112     0.39555
      H   15    0.11251      0.00000     0.38645    0.00104     0.38749
      H   16    0.12306      0.00000     0.37536    0.00158     0.37694
      H   17    0.09020      0.00000     0.40884    0.00096     0.40980
      H   18    0.09784      0.00000     0.40136    0.00080     0.40216
      H   19    0.08990      0.00000     0.40892    0.00119     0.41010
      H   20    0.09084      0.00000     0.40785    0.00132     0.40916
      H   21    0.09165      0.00000     0.40736    0.00099     0.40835
 =======================================================================
   * Total *    0.00000     16.99551    34.82210    0.18239    52.00000

 Normal termination of Gaussian 16 at Wed Dec  9 22:37:39 2020.
