 Gaussian 16, Revision A.03,

 -----------------------------------------------------------
 # opt freq B3LYP/6-31G(d) empiricaldispersion=gd3bj scf=xqc
 -----------------------------------------------------------

 -------------------------------
 CID_105062195_JID_6644_neutraal
 -------------------------------
 Symbolic Z-matrix:
 Charge =  0 Multiplicity = 1

 SCF Done:  E(RB3LYP) =  -781.211851744     A.U. after   15 cycles
 SCF Done:  E(RB3LYP) =  -781.221100526     A.U. after   13 cycles
 SCF Done:  E(RB3LYP) =  -781.221466223     A.U. after   13 cycles
 SCF Done:  E(RB3LYP) =  -781.222519426     A.U. after   13 cycles
 SCF Done:  E(RB3LYP) =  -781.222834754     A.U. after   12 cycles
 SCF Done:  E(RB3LYP) =  -781.222879874     A.U. after   13 cycles
 SCF Done:  E(RB3LYP) =  -781.223092842     A.U. after   11 cycles
 SCF Done:  E(RB3LYP) =  -781.223479476     A.U. after   13 cycles
 SCF Done:  E(RB3LYP) =  -781.222288781     A.U. after   16 cycles
 SCF Done:  E(RB3LYP) =  -781.223866729     A.U. after   13 cycles
 SCF Done:  E(RB3LYP) =  -781.224927533     A.U. after    9 cycles
 SCF Done:  E(RB3LYP) =  -781.224927937     A.U. after    8 cycles
 SCF Done:  E(RB3LYP) =  -781.224927541     A.U. after    8 cycles
 SCF Done:  E(RB3LYP) =  -781.224926638     A.U. after    8 cycles
 SCF Done:  E(RB3LYP) =  -781.224925915     A.U. after    8 cycles
 SCF Done:  E(RB3LYP) =  -781.224925801     A.U. after    7 cycles
 Optimization completed.
    -- Stationary point found.
 Normal termination of Gaussian 16 at Fri Dec 11 00:15:11 2020.

 --------------------------------------------------------------------
 #N Geom=AllCheck Guess=TCheck SCRF=Check GenChk RB3LYP/6-31G(d) Freq
 --------------------------------------------------------------------

 Structure from the checkpoint file:  "JID_6644.chk"
 -------------------------------
 CID_105062195_JID_6644_neutraal
 -------------------------------
 Charge =  0 Multiplicity = 1

 SCF Done:  E(RB3LYP) =  -781.224925801     A.U. after    1 cycles

  Exact polarizability: 141.467 -13.992 134.186 -22.535  -6.982 121.002
 Approx polarizability: 202.143 -26.052 204.025 -53.111 -13.593 195.041

                      1                      2                      3
                      A                      A                      A
 Frequencies --     12.3759                40.7147                47.3195
 Red. masses --      5.4673                 4.2995                 3.4386
 Frc consts  --      0.0005                 0.0042                 0.0045
 IR Inten    --      0.4660                 0.4834                 0.3785

                      4                      5                      6
                      A                      A                      A
 Frequencies --     75.6730                90.5238               103.9712
 Red. masses --      4.5543                 4.3940                 3.4828
 Frc consts  --      0.0154                 0.0212                 0.0222
 IR Inten    --      0.1769                 0.4509                 5.9649

                      7                      8                      9
                      A                      A                      A
 Frequencies --    144.9232               146.5613               152.5702
 Red. masses --      2.5419                 3.7445                 2.6050
 Frc consts  --      0.0315                 0.0474                 0.0357
 IR Inten    --      1.0388                16.7439                 0.6390

                     10                     11                     12
                      A                      A                      A
 Frequencies --    198.5781               217.7444               235.3111
 Red. masses --      1.2622                 2.8704                 1.8462
 Frc consts  --      0.0293                 0.0802                 0.0602
 IR Inten    --      1.4621                 3.1020                 0.6196

                     13                     14                     15
                      A                      A                      A
 Frequencies --    273.2364               289.4622               339.9613
 Red. masses --      1.6565                 2.2804                 4.0264
 Frc consts  --      0.0729                 0.1126                 0.2742
 IR Inten    --      0.2195                 4.4013                 0.5247

                     16                     17                     18
                      A                      A                      A
 Frequencies --    347.0890               356.7676               374.9816
 Red. masses --      2.7895                 3.2034                 2.4538
 Frc consts  --      0.1980                 0.2402                 0.2033
 IR Inten    --      3.9136                 4.9838                 9.4472

                     19                     20                     21
                      A                      A                      A
 Frequencies --    400.6076               426.3421               482.2648
 Red. masses --      5.2635                 4.3309                 3.6560
 Frc consts  --      0.4977                 0.4638                 0.5010
 IR Inten    --      3.5813                 1.9281                11.9648

                     22                     23                     24
                      A                      A                      A
 Frequencies --    530.0276               544.1955               583.6226
 Red. masses --      3.0776                 4.5215                 3.0061
 Frc consts  --      0.5094                 0.7889                 0.6033
 IR Inten    --      6.4233                 1.5497                 1.4198

                     25                     26                     27
                      A                      A                      A
 Frequencies --    606.9916               622.6728               700.0452
 Red. masses --      4.6898                 3.1336                 3.3121
 Frc consts  --      1.0181                 0.7158                 0.9563
 IR Inten    --      0.3816                 5.6970                25.7813

                     28                     29                     30
                      A                      A                      A
 Frequencies --    733.6651               753.0849               826.6108
 Red. masses --      4.9155                 1.7814                 2.3869
 Frc consts  --      1.5589                 0.5953                 0.9609
 IR Inten    --      8.4653                47.8401                22.0899

                     31                     32                     33
                      A                      A                      A
 Frequencies --    835.6668               855.5407               865.6376
 Red. masses --      3.7597                 1.7492                 2.8251
 Frc consts  --      1.5469                 0.7543                 1.2472
 IR Inten    --      7.7181                44.7496                11.3091

                     34                     35                     36
                      A                      A                      A
 Frequencies --    914.4487               932.6806               977.9592
 Red. masses --      2.9879                 1.7326                 3.7985
 Frc consts  --      1.4721                 0.8880                 2.1405
 IR Inten    --     22.2420                 8.1418                24.4663

                     37                     38                     39
                      A                      A                      A
 Frequencies --   1002.4751              1005.9027              1045.2919
 Red. masses --      2.7226                 1.2686                 2.5860
 Frc consts  --      1.6121                 0.7563                 1.6647
 IR Inten    --     22.9658                 0.0819                 5.5664

                     40                     41                     42
                      A                      A                      A
 Frequencies --   1069.4899              1101.0069              1109.3183
 Red. masses --      3.7034                 2.1553                 2.2881
 Frc consts  --      2.4957                 1.5394                 1.6590
 IR Inten    --     58.1073                33.6692                 7.6152

                     43                     44                     45
                      A                      A                      A
 Frequencies --   1139.6050              1163.4195              1177.2424
 Red. masses --      2.3674                 1.7068                 2.5636
 Frc consts  --      1.8115                 1.3611                 2.0933
 IR Inten    --     19.1911                50.0419                32.4595

                     46                     47                     48
                      A                      A                      A
 Frequencies --   1187.4189              1189.1479              1192.4421
 Red. masses --      1.2711                 1.5418                 1.9189
 Frc consts  --      1.0559                 1.2846                 1.6076
 IR Inten    --      0.8367                 7.4451                 8.0571

                     49                     50                     51
                      A                      A                      A
 Frequencies --   1215.6035              1231.0487              1235.6636
 Red. masses --      2.0609                 1.7188                 1.6601
 Frc consts  --      1.7943                 1.5347                 1.4934
 IR Inten    --     19.1898                28.6399                39.0984

                     52                     53                     54
                      A                      A                      A
 Frequencies --   1266.7659              1312.0277              1318.9656
 Red. masses --      1.2536                 1.6600                 1.6368
 Frc consts  --      1.1853                 1.6836                 1.6777
 IR Inten    --      5.9619                75.5996                69.0693

                     55                     56                     57
                      A                      A                      A
 Frequencies --   1333.8729              1355.8304              1367.3106
 Red. masses --      2.8145                 1.8961                 1.2558
 Frc consts  --      2.9504                 2.0536                 1.3833
 IR Inten    --     80.9986                12.1236                20.6372

                     58                     59                     60
                      A                      A                      A
 Frequencies --   1401.1893              1409.5639              1416.7018
 Red. masses --      1.3448                 1.3150                 1.2568
 Frc consts  --      1.5556                 1.5394                 1.4862
 IR Inten    --     11.7420                 8.8517                 6.7137

                     61                     62                     63
                      A                      A                      A
 Frequencies --   1439.1085              1461.6453              1495.2456
 Red. masses --      1.3504                 1.7951                 1.1108
 Frc consts  --      1.6478                 2.2595                 1.4632
 IR Inten    --      5.7732                91.4839                 2.0080

                     64                     65                     66
                      A                      A                      A
 Frequencies --   1502.8531              1509.1644              1512.4855
 Red. masses --      1.0941                 1.0517                 1.1022
 Frc consts  --      1.4560                 1.4112                 1.4856
 IR Inten    --      3.5482                 6.8488                 8.9318

                     67                     68                     69
                      A                      A                      A
 Frequencies --   1515.2863              1517.7569              1521.0758
 Red. masses --      1.1746                 1.5095                 1.1367
 Frc consts  --      1.5891                 2.0487                 1.5495
 IR Inten    --      4.7327                53.0792                11.6591

                     70                     71                     72
                      A                      A                      A
 Frequencies --   1527.4780              1530.6603              1541.9409
 Red. masses --      1.0699                 1.1524                 1.0842
 Frc consts  --      1.4707                 1.5907                 1.5188
 IR Inten    --      9.3475                 4.3296                 8.2495

                     73                     74                     75
                      A                      A                      A
 Frequencies --   1551.3045              1596.1719              1674.8958
 Red. masses --      1.0666                 9.0208                 7.2489
 Frc consts  --      1.5123                13.5411                11.9812
 IR Inten    --     11.3666                49.2158               219.9499

                     76                     77                     78
                      A                      A                      A
 Frequencies --   1760.1954              2988.0412              3001.3087
 Red. masses --      9.6991                 1.0387                 1.0677
 Frc consts  --     17.7052                 5.4640                 5.6667
 IR Inten    --    189.7510                53.6765                33.1148

                     79                     80                     81
                      A                      A                      A
 Frequencies --   3010.7251              3035.0375              3050.1991
 Red. masses --      1.0606                 1.1039                 1.0645
 Frc consts  --      5.6645                 5.9912                 5.8350
 IR Inten    --     31.7461                71.4325                28.2494

                     82                     83                     84
                      A                      A                      A
 Frequencies --   3052.6153              3061.1296              3075.0126
 Red. masses --      1.1011                 1.0310                 1.0707
 Frc consts  --      6.0452                 5.6922                 5.9651
 IR Inten    --     47.0210                30.9585                50.5431

                     85                     86                     87
                      A                      A                      A
 Frequencies --   3105.4658              3107.6478              3120.8525
 Red. masses --      1.1009                 1.0948                 1.0962
 Frc consts  --      6.2556                 6.2294                 6.2905
 IR Inten    --     25.3961                37.3631                36.1287

                     88                     89                     90
                      A                      A                      A
 Frequencies --   3128.6868              3178.3173              3181.2534
 Red. masses --      1.1068                 1.1053                 1.0945
 Frc consts  --      6.3832                 6.5788                 6.5265
 IR Inten    --     25.6423                23.5062                 3.7171

                     91                     92                     93
                      A                      A                      A
 Frequencies --   3218.0142              3241.4089              3533.5661
 Red. masses --      1.0900                 1.0966                 1.0729
 Frc consts  --      6.6504                 6.7883                 7.8927
 IR Inten    --      2.7551                 1.2514                 0.3298

 - Thermochemistry -
 -------------------
 Temperature   298.150 Kelvin.  Pressure   1.00000 Atm.
 Atom     1 has atomic number  6 and mass  12.00000

 Molecular mass:   227.12699 amu.
 Principal axes and moments of inertia in atomic units:
                           1         2         3
     Eigenvalues --  2673.949884930.878434981.53796
           X            0.99998  -0.00109  -0.00697
           Y            0.00076   0.99889  -0.04706
           Z            0.00701   0.04705   0.99887
 This molecule is an asymmetric top.
 Rotational symmetry number  1.
 Warning -- assumption of classical behavior for rotation
           may cause significant error
 Rotational temperatures (Kelvin)      0.03239     0.01757     0.01739
 Rotational constants (GHZ):           0.67493     0.36601     0.36229
 Zero-point vibrational energy     735904.9 (Joules/Mol)
                                  175.88548 (Kcal/Mol)
 Warning -- explicit consideration of  25 degrees of freedom as
           vibrations may cause significant error
 Vibrational temperatures:     17.81    58.58    68.08   108.88   130.24
          (Kelvin)            149.59   208.51   210.87   219.51   285.71
                              313.29   338.56   393.13   416.47   489.13
                              499.38   513.31   539.51   576.38   613.41
                              693.87   762.59   782.98   839.70   873.33
                              895.89  1007.21  1055.58  1083.52  1189.31
                             1202.34  1230.93  1245.46  1315.69  1341.92
                             1407.07  1442.34  1447.27  1503.94  1538.76
                             1584.10  1596.06  1639.64  1673.90  1693.79
                             1708.43  1710.92  1715.66  1748.98  1771.20
                             1777.84  1822.59  1887.72  1897.70  1919.15
                             1950.74  1967.26  2016.00  2028.05  2038.32
                             2070.56  2102.98  2151.32  2162.27  2171.35
                             2176.13  2180.16  2183.71  2188.49  2197.70
                             2202.28  2218.51  2231.98  2296.54  2409.80
                             2532.53  4299.12  4318.21  4331.76  4366.74
                             4388.56  4392.03  4404.28  4424.26  4468.07
                             4471.21  4490.21  4501.48  4572.89  4577.11
                             4630.00  4663.66  5084.01

 Zero-point correction=                           0.280291 (Hartree/Particle)
 Thermal correction to Energy=                    0.296754
 Thermal correction to Enthalpy=                  0.297698
 Thermal correction to Gibbs Free Energy=         0.234380
 Sum of electronic and zero-point Energies=           -780.944634
 Sum of electronic and thermal Energies=              -780.928172
 Sum of electronic and thermal Enthalpies=            -780.927228
 Sum of electronic and thermal Free Energies=         -780.990546

                     E (Thermal)             CV                S
                      KCal/Mol        Cal/Mol-Kelvin    Cal/Mol-Kelvin
 Total                  186.216             60.193            133.264
 Electronic               0.000              0.000              0.000
 Translational            0.889              2.981             42.163
 Rotational               0.889              2.981             32.552
 Vibrational            184.438             54.231             58.550
 Vibration     1          0.593              1.987              7.588
 Vibration     2          0.594              1.981              5.224
 Vibration     3          0.595              1.979              4.926
 Vibration     4          0.599              1.965              4.000
 Vibration     5          0.602              1.956              3.649
 Vibration     6          0.605              1.946              3.378
 Vibration     7          0.616              1.908              2.738
 Vibration     8          0.617              1.906              2.716
 Vibration     9          0.619              1.900              2.640
 Vibration    10          0.637              1.842              2.146
 Vibration    11          0.646              1.814              1.978
 Vibration    12          0.655              1.787              1.838
 Vibration    13          0.676              1.723              1.576
 Vibration    14          0.686              1.693              1.477
 Vibration    15          0.720              1.596              1.212
 Vibration    16          0.725              1.581              1.179
 Vibration    17          0.732              1.561              1.136
 Vibration    18          0.746              1.523              1.059
 Vibration    19          0.766              1.469              0.960
 Vibration    20          0.788              1.413              0.871
 Vibration    21          0.839              1.289              0.704
 Vibration    22          0.885              1.184              0.587
 Vibration    23          0.899              1.152              0.556
 Vibration    24          0.941              1.067              0.479
 Vibration    25          0.966              1.017              0.438

                           ! Non-Optimized Parameters !
 Normal termination of Gaussian 16 at Fri Dec 11 00:26:34 2020.

 ----------------------------------------------------------------------
 # B3LYP/6-311++G(d,p) empiricaldispersion=gd3bj scf=xqc pop=npa geom=c
 heck
 ----------------------------------------------------------------------

 ---------------------------------------
 CID_105062195_JID_6644_Energie_neutraal
 ---------------------------------------
 Structure from the checkpoint file:  "JID_6644.chk"
 Charge =  0 Multiplicity = 1

 SCF Done:  E(RB3LYP) =  -781.451857889     A.U. after   16 cycles
 Normal termination of Gaussian 16 at Fri Dec 11 00:31:28 2020.

 ----------------------------------------------------------------------
 # B3LYP/6-311++G(d,p) empiricaldispersion=gd3bj scf=xqc pop=npa geom=c
 heck
 ----------------------------------------------------------------------

 -------------------------------------
 CID_105062195_JID_6644_Energie_kation
 -------------------------------------
 Structure from the checkpoint file:  "JID_6644.chk"
 Charge =  1 Multiplicity = 2

 SCF Done:  E(UB3LYP) =  -781.157294464     A.U. after   25 cycles
 Normal termination of Gaussian 16 at Fri Dec 11 00:42:36 2020.
 Gaussian 16:  ES64L-G16RevA.03 25-Dec-2016

 ----------------------------------------------------------------------
 # B3LYP/6-311++G(d,p) empiricaldispersion=gd3bj scf=xqc pop=npa geom=c
 heck
 ----------------------------------------------------------------------

 ------------------------------------
 CID_105062195_JID_6644_Energie_anion
 ------------------------------------
 Structure from the checkpoint file:  "JID_6644.chk"
 Charge = -1 Multiplicity = 2

                         Standard orientation:
 ---------------------------------------------------------------------
 Center     Atomic      Atomic             Coordinates (Angstroms)
 Number     Number       Type             X           Y           Z
 ---------------------------------------------------------------------
      1          6           0       -1.706543   -2.059947   -1.135312
      2          8           0       -2.925141   -1.704645   -0.523862
      3          6           0       -3.405318   -0.403905   -0.834669
      4          6           0       -2.599770    0.748461   -0.228543
      5          7           0       -1.490073    1.164266   -1.092504
      6          6           0       -0.712150    2.287512   -0.598397
      7          6           0       -0.047652    2.104544    0.785092
      8          7           0        0.658972    0.827332    0.877647
      9          6           0        0.268573   -0.115947    1.835596
     10          8           0       -0.631738    0.106756    2.644698
     11          6           0        1.023836   -1.363565    1.767871
     12          6           0        1.989371   -1.553488    0.839816
     13          6           0        2.251171   -0.487886   -0.083276
     14          7           0        1.616835    0.646372   -0.069777
     15          8           0        3.211915   -0.718828   -1.003094
     16          6           0        3.466465    0.333889   -1.936577
     17          1           0       -1.598561   -3.143746   -1.032158
     18          1           0       -0.836721   -1.589258   -0.650463
     19          1           0       -1.694709   -1.802381   -2.206794
     20          1           0       -3.466020   -0.265960   -1.926619
     21          1           0       -4.420285   -0.384780   -0.426363
     22          1           0       -3.265270    1.617425   -0.130255
     23          1           0       -2.300345    0.456701    0.790827
     24          1           0       -0.858872    0.384215   -1.251896
     25          1           0        0.066813    2.500448   -1.337134
     26          1           0       -1.359570    3.172357   -0.540948
     27          1           0        0.667287    2.915481    0.963770
     28          1           0       -0.776700    2.094617    1.593785
     29          1           0        0.755679   -2.119370    2.497194
     30          1           0        2.563700   -2.470787    0.761377
     31          1           0        2.569683    0.557289   -2.523584
     32          1           0        3.782092    1.244798   -1.418381
     33          1           0        4.263472   -0.037110   -2.581467
 ---------------------------------------------------------------------

 SCF Done:  E(UB3LYP) =  -781.464995245     A.U. after   28 cycles

 The electronic state is 2-A.
 Alpha  occ. eigenvalues --  -19.02316 -19.01666 -18.91797 -14.21529 -14.18001
 Alpha  occ. eigenvalues --  -14.17005 -10.10987 -10.10493 -10.10328 -10.10186
 Alpha  occ. eigenvalues --  -10.10138 -10.07512 -10.07259 -10.06449 -10.00705
 Alpha  occ. eigenvalues --   -9.99693  -0.94747  -0.92862  -0.88861  -0.84112
 Alpha  occ. eigenvalues --   -0.78870  -0.69673  -0.64553  -0.63748  -0.60934
 Alpha  occ. eigenvalues --   -0.58787  -0.55890  -0.50703  -0.49098  -0.48252
 Alpha  occ. eigenvalues --   -0.46593  -0.40632  -0.39200  -0.38554  -0.37257
 Alpha  occ. eigenvalues --   -0.37008  -0.35242  -0.33981  -0.33051  -0.32593
 Alpha  occ. eigenvalues --   -0.31507  -0.30965  -0.29948  -0.28888  -0.27344
 Alpha  occ. eigenvalues --   -0.26798  -0.25993  -0.25598  -0.25095  -0.23851
 Alpha  occ. eigenvalues --   -0.23211  -0.22897  -0.22008  -0.20770  -0.17999
 Alpha  occ. eigenvalues --   -0.15497  -0.15219  -0.13668  -0.11205  -0.09242
 Alpha  occ. eigenvalues --   -0.07238   0.04947
 Alpha virt. eigenvalues --    0.07888   0.08398   0.09000   0.09925   0.10401
 Alpha virt. eigenvalues --    0.10962   0.11724   0.11845   0.12453   0.12901
 Alpha virt. eigenvalues --    0.12952   0.14331   0.14464   0.15065   0.15487

  Beta  occ. eigenvalues --  -19.02288 -19.01664 -18.91709 -14.21228 -14.18002
  Beta  occ. eigenvalues --  -14.16555 -10.10987 -10.10493 -10.10367 -10.10187
  Beta  occ. eigenvalues --  -10.10132 -10.07510 -10.07238 -10.06466 -10.00350
  Beta  occ. eigenvalues --   -9.99268  -0.94662  -0.92859  -0.88474  -0.83733
  Beta  occ. eigenvalues --   -0.78847  -0.69245  -0.64515  -0.62886  -0.60836
  Beta  occ. eigenvalues --   -0.58639  -0.55825  -0.50458  -0.48961  -0.48011
  Beta  occ. eigenvalues --   -0.46007  -0.40451  -0.39167  -0.38437  -0.37232
  Beta  occ. eigenvalues --   -0.36888  -0.34981  -0.33805  -0.32950  -0.32420
  Beta  occ. eigenvalues --   -0.31345  -0.30838  -0.29681  -0.28631  -0.27225
  Beta  occ. eigenvalues --   -0.26558  -0.25897  -0.25238  -0.24880  -0.23738
  Beta  occ. eigenvalues --   -0.22952  -0.22424  -0.21930  -0.20757  -0.16886
  Beta  occ. eigenvalues --   -0.15268  -0.14901  -0.11655  -0.10795  -0.08988
  Beta  occ. eigenvalues --   -0.05578
  Beta virt. eigenvalues --    0.07770   0.08325   0.08941   0.09842   0.10317
  Beta virt. eigenvalues --    0.10933   0.11647   0.11775   0.12075   0.12396
  Beta virt. eigenvalues --    0.12830   0.12889   0.14269   0.14445   0.15023

 Mulliken charges and spin densities:
               1          2
     1  C   -0.345891   0.008517
     2  O   -0.113904  -0.000450
     3  C   -0.452218  -0.005913
     4  C   -0.340217  -0.029984
     5  N    0.005780   0.014397
     6  C   -0.279521  -0.136752
     7  C   -0.040726  -0.061655
     8  N    0.273818   0.055834
     9  C   -0.302366   0.064650
    10  O   -0.354447   0.025497
    11  C   -0.232650   0.322464
    12  C    0.330427   0.291852
    13  C   -0.574832  -0.048270
    14  N   -0.427370   0.258997
    15  O   -0.123620   0.004072
    16  C   -0.242026  -0.047757
    17  H    0.138242   0.001631
    18  H    0.190823  -0.019028
    19  H    0.098502   0.000831
    20  H    0.131910   0.001099
    21  H    0.148670  -0.000483
    22  H    0.086536   0.021181
    23  H    0.194604   0.005695
    24  H    0.236130  -0.009065
    25  H    0.152707   0.010443
    26  H    0.015442   0.102649
    27  H   -0.038256   0.195908
    28  H    0.205503  -0.028163
    29  H    0.134550  -0.025470
    30  H    0.145265  -0.020245
    31  H    0.123365   0.023931
    32  H    0.128774   0.019356
    33  H    0.126996   0.004233
 Sum of Mulliken charges =  -1.00000   1.00000

 Dipole moment (field-independent basis, Debye):
    X=             -1.0416    Y=              0.9800    Z=             -5.1781  Tot=              5.3720
 Quadrupole moment (field-independent basis, Debye-Ang):
   XX=           -123.2938   YY=           -114.6253   ZZ=           -123.9463
   XY=             -0.3898   XZ=             -0.5809   YZ=              3.2778

 Summary of Natural Population Analysis:

                                       Natural Population
                Natural  -----------------------------------------------
    Atom  No    Charge         Core      Valence    Rydberg      Total
 -----------------------------------------------------------------------
      C    1   -0.10337      0.99962     2.09465    0.00910     3.10337
      O    2   -0.29938      0.99989     3.28891    0.01059     4.29938
      C    3   -0.00831      0.99959     1.99798    0.01075     3.00831
      C    4   -0.11315      0.99962     2.10524    0.00829     3.11315
      N    5   -0.34941      0.99975     2.83614    0.01352     3.84941
      C    6   -0.09101      0.99963     2.07727    0.01411     3.09101
      C    7   -0.10110      0.99962     2.08945    0.01203     3.10110
      N    8   -0.11255      0.99965     2.59865    0.01424     3.61255
      C    9    0.30457      0.99960     1.67333    0.02250     2.69543
      O   10   -0.35055      0.99988     3.34456    0.00611     4.35055
      C   11   -0.04625      0.99953     2.03740    0.00932     3.04625
      C   12   -0.06325      0.99952     2.05469    0.00904     3.06325
      C   13    0.23899      0.99950     1.74452    0.01699     2.76101
      N   14   -0.13205      0.99963     2.61988    0.01254     3.63205
      O   15   -0.27829      0.99986     3.26916    0.00928     4.27829
      C   16   -0.10216      0.99961     2.09397    0.00858     3.10216
      H   17    0.08725      0.00000     0.41188    0.00087     0.41275
      H   18    0.09098      0.00000     0.40758    0.00145     0.40902
      H   19    0.07230      0.00000     0.42662    0.00108     0.42770
      H   20    0.07579      0.00000     0.42273    0.00148     0.42421
      H   21    0.08631      0.00000     0.41274    0.00095     0.41369
      H   22    0.08615      0.00000     0.41216    0.00169     0.41385
      H   23    0.10689      0.00000     0.39137    0.00174     0.39311
      H   24    0.17771      0.00000     0.31846    0.00384     0.32229
      H   25    0.09785      0.00000     0.40096    0.00119     0.40215
      H   26    0.08446      0.00000     0.41430    0.00124     0.41554
      H   27    0.09412      0.00000     0.40406    0.00182     0.40588
      H   28    0.11101      0.00000     0.38747    0.00151     0.38899
      H   29    0.09118      0.00000     0.40733    0.00149     0.40882
      H   30    0.09214      0.00000     0.40670    0.00116     0.40786
      H   31    0.08577      0.00000     0.41266    0.00157     0.41423
      H   32    0.08672      0.00000     0.41162    0.00166     0.41328
      H   33    0.08064      0.00000     0.41839    0.00097     0.41936
 =======================================================================
   * Total *    0.00000     15.99448    44.79283    0.21269    61.00000

 Normal termination of Gaussian 16 at Fri Dec 11 00:55:15 2020.
