 Gaussian 16, Revision A.03,

 -----------------------------------------------------------
 # opt freq B3LYP/6-31G(d) empiricaldispersion=gd3bj scf=xqc
 -----------------------------------------------------------

 -------------------------------
 CID_116661907_JID_9961_neutraal
 -------------------------------
 Symbolic Z-matrix:
 Charge =  0 Multiplicity = 1

 SCF Done:  E(RB3LYP) =  -824.972425823     A.U. after   14 cycles
 SCF Done:  E(RB3LYP) =  -824.979088439     A.U. after   13 cycles
 SCF Done:  E(RB3LYP) =  -824.977786768     A.U. after   13 cycles
 SCF Done:  E(RB3LYP) =  -824.979450538     A.U. after   12 cycles
 SCF Done:  E(RB3LYP) =  -824.980770082     A.U. after   12 cycles
 SCF Done:  E(RB3LYP) =  -824.981224452     A.U. after   12 cycles
 SCF Done:  E(RB3LYP) =  -824.982621232     A.U. after   14 cycles
 SCF Done:  E(RB3LYP) =  -824.983719684     A.U. after   12 cycles
 SCF Done:  E(RB3LYP) =  -824.983532521     A.U. after   12 cycles
 SCF Done:  E(RB3LYP) =  -824.984721178     A.U. after   12 cycles
 SCF Done:  E(RB3LYP) =  -824.984810295     A.U. after   11 cycles
 SCF Done:  E(RB3LYP) =  -824.984818136     A.U. after    9 cycles
 SCF Done:  E(RB3LYP) =  -824.984820343     A.U. after    8 cycles
 SCF Done:  E(RB3LYP) =  -824.984820667     A.U. after    7 cycles
 SCF Done:  E(RB3LYP) =  -824.984820765     A.U. after    7 cycles
 Optimization completed.
    -- Stationary point found.
 Normal termination of Gaussian 16 at Mon Dec 14 13:37:15 2020.

 --------------------------------------------------------------------
 #N Geom=AllCheck Guess=TCheck SCRF=Check GenChk RB3LYP/6-31G(d) Freq
 --------------------------------------------------------------------

 Structure from the checkpoint file:  "JID_9961.chk"
 -------------------------------
 CID_116661907_JID_9961_neutraal
 -------------------------------
 Charge =  0 Multiplicity = 1

 SCF Done:  E(RB3LYP) =  -824.984820765     A.U. after    1 cycles

  Exact polarizability: 199.405  12.896 169.021  10.137 -19.422 158.074
 Approx polarizability: 286.972  25.690 235.135  24.615 -40.290 261.999

                      1                      2                      3
                      A                      A                      A
 Frequencies --     32.5365                40.1690                49.0351
 Red. masses --      3.9203                 3.7859                 3.4226
 Frc consts  --      0.0024                 0.0036                 0.0048
 IR Inten    --      0.0906                 0.3024                 0.0229

                      4                      5                      6
                      A                      A                      A
 Frequencies --     60.6068                79.4117               101.5642
 Red. masses --      3.1073                 3.6554                 3.1768
 Frc consts  --      0.0067                 0.0136                 0.0193
 IR Inten    --      0.0395                 1.0266                 1.4366

                      7                      8                      9
                      A                      A                      A
 Frequencies --    112.7252               120.5377               144.4295
 Red. masses --      2.1181                 3.8709                 3.0776
 Frc consts  --      0.0159                 0.0331                 0.0378
 IR Inten    --      0.6861                 3.3943                 0.4271

                     10                     11                     12
                      A                      A                      A
 Frequencies --    159.5447               190.4620               193.3108
 Red. masses --      2.1385                 2.2289                 1.7053
 Frc consts  --      0.0321                 0.0476                 0.0375
 IR Inten    --      0.2743                 0.5328                 0.7155

                     13                     14                     15
                      A                      A                      A
 Frequencies --    217.5002               249.7480               268.9895
 Red. masses --      2.7479                 1.9668                 1.5320
 Frc consts  --      0.0766                 0.0723                 0.0653
 IR Inten    --      0.5050                 0.8632                 0.4036

                     16                     17                     18
                      A                      A                      A
 Frequencies --    290.1801               303.3875               317.2338
 Red. masses --      2.7035                 2.6615                 3.1754
 Frc consts  --      0.1341                 0.1443                 0.1883
 IR Inten    --      3.6216                 1.5418                 2.1783

                     19                     20                     21
                      A                      A                      A
 Frequencies --    331.8321               384.1649               406.2129
 Red. masses --      3.0701                 2.4708                 2.6450
 Frc consts  --      0.1992                 0.2148                 0.2571
 IR Inten    --      0.9240                 3.0136                 0.5696

                     22                     23                     24
                      A                      A                      A
 Frequencies --    435.6632               462.0407               492.3295
 Red. masses --      3.1278                 2.6820                 4.8473
 Frc consts  --      0.3498                 0.3373                 0.6923
 IR Inten    --      0.3696                 3.3287                 3.8896

                     25                     26                     27
                      A                      A                      A
 Frequencies --    523.6201               550.1468               579.7833
 Red. masses --      4.2717                 4.9018                 3.6047
 Frc consts  --      0.6901                 0.8741                 0.7139
 IR Inten    --      7.5444                10.7911                 0.8855

                     28                     29                     30
                      A                      A                      A
 Frequencies --    610.4185               615.8886               629.2664
 Red. masses --      5.0741                 2.5800                 4.2790
 Frc consts  --      1.1140                 0.5766                 0.9983
 IR Inten    --      1.3762                 3.1766                10.3626

                     31                     32                     33
                      A                      A                      A
 Frequencies --    699.9883               729.1298               778.4663
 Red. masses --      2.9487                 1.6380                 2.6569
 Frc consts  --      0.8513                 0.5131                 0.9486
 IR Inten    --      1.2740                89.4318                22.9506

                     34                     35                     36
                      A                      A                      A
 Frequencies --    797.7112               813.6422               827.7613
 Red. masses --      5.7268                 1.9248                 1.1806
 Frc consts  --      2.1471                 0.7508                 0.4766
 IR Inten    --      0.9960                 3.9425                 1.1973

                     37                     38                     39
                      A                      A                      A
 Frequencies --    834.6173               860.3508               867.6702
 Red. masses --      1.6956                 1.4621                 2.3241
 Frc consts  --      0.6959                 0.6377                 1.0309
 IR Inten    --      0.4171                22.3127                 0.6754

                     40                     41                     42
                      A                      A                      A
 Frequencies --    875.1361               887.9936               902.2336
 Red. masses --      1.6951                 2.6707                 3.6527
 Frc consts  --      0.7649                 1.2408                 1.7519
 IR Inten    --      4.8952                 1.3562                 2.6807

                     43                     44                     45
                      A                      A                      A
 Frequencies --    925.8686               947.1300               955.2982
 Red. masses --      2.5063                 1.4168                 1.6937
 Frc consts  --      1.2659                 0.7488                 0.9107
 IR Inten    --      2.6349                 3.5212                 3.0766

                     46                     47                     48
                      A                      A                      A
 Frequencies --    959.4506               993.2185              1002.6984
 Red. masses --      1.3917                 2.7634                 2.1704
 Frc consts  --      0.7548                 1.6061                 1.2857
 IR Inten    --      0.0713                 0.1260                 8.1325

                     49                     50                     51
                      A                      A                      A
 Frequencies --   1051.2256              1057.5902              1071.4969
 Red. masses --      5.9596                 2.7365                 2.0760
 Frc consts  --      3.8803                 1.8033                 1.4043
 IR Inten    --     29.8515                18.3232                 9.8012

                     52                     53                     54
                      A                      A                      A
 Frequencies --   1101.3472              1111.4968              1118.0156
 Red. masses --      1.6797                 1.8721                 2.1418
 Frc consts  --      1.2004                 1.3627                 1.5773
 IR Inten    --      8.0008                 0.3039                 3.8804

                     55                     56                     57
                      A                      A                      A
 Frequencies --   1141.1893              1158.9555              1165.3886
 Red. masses --      2.2975                 1.9497                 2.3912
 Frc consts  --      1.7629                 1.5430                 1.9134
 IR Inten    --     45.4670                32.7257                17.3668

                     58                     59                     60
                      A                      A                      A
 Frequencies --   1168.1688              1179.2194              1185.4475
 Red. masses --      1.2263                 2.3604                 1.2704
 Frc consts  --      0.9860                 1.9338                 1.0519
 IR Inten    --      5.8879                49.9440                 1.1171

                     61                     62                     63
                      A                      A                      A
 Frequencies --   1197.6832              1210.4379              1212.9203
 Red. masses --      1.6311                 1.4469                 1.5847
 Frc consts  --      1.3785                 1.2490                 1.3736
 IR Inten    --     48.9170                12.4204                 3.1923

                     64                     65                     66
                      A                      A                      A
 Frequencies --   1236.6465              1254.7499              1277.2230
 Red. masses --      1.3369                 3.0261                 1.3796
 Frc consts  --      1.2046                 2.8070                 1.3260
 IR Inten    --      7.8106                39.2655                 1.3079

                     67                     68                     69
                      A                      A                      A
 Frequencies --   1283.9294              1310.0038              1312.0621
 Red. masses --      1.2927                 1.2137                 2.0891
 Frc consts  --      1.2555                 1.2272                 2.1190
 IR Inten    --      2.0138                 1.9804                13.6047

                     70                     71                     72
                      A                      A                      A
 Frequencies --   1315.1791              1345.3798              1359.0462
 Red. masses --      1.3058                 1.9743                 1.2711
 Frc consts  --      1.3308                 2.1055                 1.3832
 IR Inten    --      0.9217                38.4610                 0.3926

                     73                     74                     75
                      A                      A                      A
 Frequencies --   1370.2807              1386.9329              1389.1667
 Red. masses --      1.4799                 1.6434                 1.4594
 Frc consts  --      1.6373                 1.8625                 1.6594
 IR Inten    --     48.3117                20.4117                 8.5352

                     76                     77                     78
                      A                      A                      A
 Frequencies --   1398.8664              1402.9919              1415.8535
 Red. masses --      1.6584                 1.5309                 1.4267
 Frc consts  --      1.9121                 1.7754                 1.6851
 IR Inten    --     12.4407                 1.4094                49.1409

                     79                     80                     81
                      A                      A                      A
 Frequencies --   1422.7123              1439.0196              1449.5558
 Red. masses --      1.7206                 1.5343                 1.7997
 Frc consts  --      2.0520                 1.8720                 2.2280
 IR Inten    --     14.1589               102.0407                69.4514

                     82                     83                     84
                      A                      A                      A
 Frequencies --   1497.5834              1505.0213              1509.6958
 Red. masses --      1.9754                 1.1064                 1.0486
 Frc consts  --      2.6103                 1.4766                 1.4082
 IR Inten    --     13.0294                 0.1066                 5.1015

                     85                     86                     87
                      A                      A                      A
 Frequencies --   1512.5915              1513.3229              1516.0588
 Red. masses --      1.1058                 1.1091                 1.6177
 Frc consts  --      1.4907                 1.4965                 2.1907
 IR Inten    --      6.4840                16.7998                47.5687

                     88                     89                     90
                      A                      A                      A
 Frequencies --   1519.5120              1524.2052              1526.2985
 Red. masses --      1.0909                 1.1173                 1.0690
 Frc consts  --      1.4840                 1.5294                 1.4673
 IR Inten    --      3.1395                 5.1088                11.5573

                     91                     92                     93
                      A                      A                      A
 Frequencies --   1528.4176              1531.6840              1535.3625
 Red. masses --      1.0619                 1.0999                 1.1612
 Frc consts  --      1.4615                 1.5204                 1.6128
 IR Inten    --     17.6047                 0.9034                25.7180

                     94                     95                     96
                      A                      A                      A
 Frequencies --   1554.4793              1604.8662              1628.3164
 Red. masses --      1.0917                 9.0587                 5.7610
 Frc consts  --      1.5543                13.7465                 8.9996
 IR Inten    --      2.4917                56.2148                 8.9099

                     97                     98                     99
                      A                      A                      A
 Frequencies --   1741.7992              2940.4988              3001.5791
 Red. masses --      6.6295                 1.0731                 1.0736
 Frc consts  --     11.8502                 5.4667                 5.6991
 IR Inten    --      0.6489                77.4215                25.6040

                    100                    101                    102
                      A                      A                      A
 Frequencies --   3002.6743              3030.7644              3040.2722
 Red. masses --      1.0698                 1.0698                 1.0615
 Frc consts  --      5.6831                 5.7900                 5.7811
 IR Inten    --     30.7887                15.9019                14.1495

                    103                    104                    105
                      A                      A                      A
 Frequencies --   3042.4687              3048.0602              3048.5255
 Red. masses --      1.0784                 1.0851                 1.0446
 Frc consts  --      5.8813                 5.9399                 5.7200
 IR Inten    --     22.6418                66.1897                35.5489

                    106                    107                    108
                      A                      A                      A
 Frequencies --   3056.4073              3067.5152              3068.0286
 Red. masses --      1.0657                 1.0599                 1.0470
 Frc consts  --      5.8654                 5.8762                 5.8065
 IR Inten    --     13.6990                69.1640                16.7762

                    109                    110                    111
                      A                      A                      A
 Frequencies --   3079.2999              3080.6742              3086.0340
 Red. masses --      1.0976                 1.0875                 1.1044
 Frc consts  --      6.1322                 6.0808                 6.1969
 IR Inten    --     64.4327                33.0811                54.2442

                    112                    113                    114
                      A                      A                      A
 Frequencies --   3100.3809              3111.0987              3133.9746
 Red. masses --      1.1038                 1.0998                 1.1030
 Frc consts  --      6.2512                 6.2719                 6.3829
 IR Inten    --     26.2226                49.5839                28.3143

                    115                    116                    117
                      A                      A                      A
 Frequencies --   3139.1660              3150.9988              3175.8322
 Red. masses --      1.1071                 1.0887                 1.1065
 Frc consts  --      6.4281                 6.3685                 6.5755
 IR Inten    --     23.1822                30.4538                21.2737

                    118                    119                    120
                      A                      A                      A
 Frequencies --   3183.5544              3203.8521              3517.8019
 Red. masses --      1.0874                 1.0972                 1.0732
 Frc consts  --      6.4935                 6.6355                 7.8249
 IR Inten    --      4.8430                44.6949                 3.0974

 - Thermochemistry -
 -------------------
 Temperature   298.150 Kelvin.  Pressure   1.00000 Atm.
 Atom     1 has atomic number  6 and mass  12.00000

 Molecular mass:   261.18411 amu.
 Principal axes and moments of inertia in atomic units:
                           1         2         3
     Eigenvalues --  4170.756105783.794867668.35219
           X            0.99967   0.01969   0.01661
           Y           -0.01969   0.99981   0.00015
           Z           -0.01660  -0.00048   0.99986
 This molecule is an asymmetric top.
 Rotational symmetry number  1.
 Warning -- assumption of classical behavior for rotation
           may cause significant error
 Rotational temperatures (Kelvin)      0.02077     0.01498     0.01129
 Rotational constants (GHZ):           0.43271     0.31203     0.23535
 Zero-point vibrational energy     969991.8 (Joules/Mol)
                                  231.83360 (Kcal/Mol)
 Warning -- explicit consideration of  29 degrees of freedom as
           vibrations may cause significant error
 Vibrational temperatures:     46.81    57.79    70.55    87.20   114.26
          (Kelvin)            146.13   162.19   173.43   207.80   229.55
                              274.03   278.13   312.93   359.33   387.02
                              417.50   436.51   456.43   477.43   552.73
                              584.45   626.82   664.77   708.35   753.37
                              791.54   834.18   878.26   886.13   905.37
                             1007.13  1049.06  1120.04  1147.73  1170.65
                             1190.96  1200.83  1237.85  1248.38  1259.13
                             1277.62  1298.11  1332.12  1362.71  1374.46
                             1380.44  1429.02  1442.66  1512.48  1521.64
                             1541.65  1584.59  1599.20  1608.58  1641.92
                             1667.48  1676.73  1680.73  1696.63  1705.59
                             1723.20  1741.55  1745.12  1779.26  1805.31
                             1837.64  1847.29  1884.80  1887.76  1892.25
                             1935.70  1955.36  1971.53  1995.49  1998.70
                             2012.66  2018.59  2037.10  2046.97  2070.43
                             2085.59  2154.69  2165.39  2172.12  2176.28
                             2177.33  2181.27  2186.24  2192.99  2196.00
                             2199.05  2203.75  2209.04  2236.55  2309.04
                             2342.78  2506.06  4230.72  4318.60  4320.18
                             4360.59  4374.27  4377.43  4385.48  4386.15
                             4397.49  4413.47  4414.21  4430.43  4432.40
                             4440.11  4460.76  4476.18  4509.09  4516.56
                             4533.58  4569.31  4580.42  4609.63  5061.33

 Zero-point correction=                           0.369450 (Hartree/Particle)
 Thermal correction to Energy=                    0.388215
 Thermal correction to Enthalpy=                  0.389159
 Thermal correction to Gibbs Free Energy=         0.321697
 Sum of electronic and zero-point Energies=           -824.615370
 Sum of electronic and thermal Energies=              -824.596606
 Sum of electronic and thermal Enthalpies=            -824.595661
 Sum of electronic and thermal Free Energies=         -824.663124

                     E (Thermal)             CV                S
                      KCal/Mol        Cal/Mol-Kelvin    Cal/Mol-Kelvin
 Total                  243.609             71.412            141.986
 Electronic               0.000              0.000              0.000
 Translational            0.889              2.981             42.580
 Rotational               0.889              2.981             33.580
 Vibrational            241.831             65.450             65.826
 Vibration     1          0.594              1.983              5.668
 Vibration     2          0.594              1.981              5.251
 Vibration     3          0.595              1.978              4.856
 Vibration     4          0.597              1.973              4.437
 Vibration     5          0.600              1.963              3.905
 Vibration     6          0.604              1.948              3.424
 Vibration     7          0.607              1.939              3.221
 Vibration     8          0.609              1.932              3.092
 Vibration     9          0.616              1.909              2.744
 Vibration    10          0.621              1.892              2.555
 Vibration    11          0.634              1.853              2.223
 Vibration    12          0.635              1.849              2.196
 Vibration    13          0.646              1.814              1.980
 Vibration    14          0.663              1.763              1.732
 Vibration    15          0.673              1.730              1.603
 Vibration    16          0.686              1.692              1.473
 Vibration    17          0.695              1.667              1.398
 Vibration    18          0.704              1.641              1.324
 Vibration    19          0.714              1.612              1.251
 Vibration    20          0.753              1.504              1.023
 Vibration    21          0.771              1.457              0.940
 Vibration    22          0.796              1.392              0.840
 Vibration    23          0.820              1.334              0.760
 Vibration    24          0.848              1.267              0.678
 Vibration    25          0.879              1.198              0.602
 Vibration    26          0.905              1.139              0.544
 Vibration    27          0.936              1.075              0.486
 Vibration    28          0.969              1.010              0.432
 Vibration    29          0.975              0.998              0.423

 Optimization completed.
    -- Stationary point found.
 Normal termination of Gaussian 16 at Mon Dec 14 14:03:59 2020.

 ----------------------------------------------------------------------
 # B3LYP/6-311++G(d,p) empiricaldispersion=gd3bj scf=xqc pop=npa geom=c
 heck
 ----------------------------------------------------------------------

 ---------------------------------------
 CID_116661907_JID_9961_Energie_neutraal
 ---------------------------------------
 Structure from the checkpoint file:  "JID_9961.chk"
 Charge =  0 Multiplicity = 1

 SCF Done:  E(RB3LYP) =  -825.207787949     A.U. after   15 cycles
 Normal termination of Gaussian 16 at Mon Dec 14 14:16:01 2020.

 ----------------------------------------------------------------------
 # B3LYP/6-311++G(d,p) empiricaldispersion=gd3bj scf=xqc pop=npa geom=c
 heck
 ----------------------------------------------------------------------

 -------------------------------------
 CID_116661907_JID_9961_Energie_kation
 -------------------------------------
 Structure from the checkpoint file:  "JID_9961.chk"
 Charge =  1 Multiplicity = 2

 SCF Done:  E(UB3LYP) =  -824.928493054     A.U. after   27 cycles
 Normal termination of Gaussian 16 at Mon Dec 14 14:47:40 2020.
 Gaussian 16:  ES64L-G16RevA.03 25-Dec-2016

 ----------------------------------------------------------------------
 # B3LYP/6-311++G(d,p) empiricaldispersion=gd3bj scf=xqc pop=npa geom=c
 heck
 ----------------------------------------------------------------------

 ------------------------------------
 CID_116661907_JID_9961_Energie_anion
 ------------------------------------
 Structure from the checkpoint file:  "JID_9961.chk"
 Charge = -1 Multiplicity = 2

                         Standard orientation:
 ---------------------------------------------------------------------
 Center     Atomic      Atomic             Coordinates (Angstroms)
 Number     Number       Type             X           Y           Z
 ---------------------------------------------------------------------
      1          6           0        2.429779    3.802543    0.923552
      2          6           0        1.588735    3.089950   -0.132078
      3          7           0        0.721753    2.107064    0.497924
      4          6           0       -0.190926    1.403870   -0.381280
      5          6           0        0.480892    0.556356   -1.526514
      6          6           0        1.302436   -0.593439   -1.001550
      7          6           0        2.568982   -0.421109   -0.595405
      8          6           0        3.435676   -1.503901   -0.004112
      9          6           0        2.837409   -2.904029   -0.195849
     10          6           0        1.329817   -2.887081    0.073833
     11          6           0        0.623016   -1.944755   -0.904459
     12          6           0       -1.082222    0.503129    0.442787
     13          7           0       -0.611303    0.001933    1.577629
     14          6           0       -1.386605   -0.864015    2.256361
     15          6           0       -2.638772   -1.229844    1.791773
     16          7           0       -3.139748   -0.733413    0.645515
     17          6           0       -2.369258    0.115453   -0.014170
     18          8           0       -2.792437    0.644704   -1.182557
     19          6           0       -4.089279    0.246545   -1.638607
     20          1           0        1.785508    4.271827    1.673416
     21          1           0        3.063153    4.571269    0.467558
     22          1           0        3.086782    3.091880    1.440601
     23          1           0        0.949194    3.816788   -0.651407
     24          1           0        2.260892    2.667909   -0.902683
     25          1           0        1.255190    1.428541    1.036989
     26          1           0       -0.821673    2.149482   -0.879549
     27          1           0       -0.314998    0.193668   -2.187589
     28          1           0        1.100495    1.237960   -2.118836
     29          1           0        3.024963    0.563993   -0.691215
     30          1           0        3.576819   -1.303482    1.069980
     31          1           0        4.441272   -1.457857   -0.444553
     32          1           0        3.344433   -3.624673    0.456769
     33          1           0        3.010589   -3.234183   -1.229449
     34          1           0        0.909001   -3.896996   -0.000877
     35          1           0        1.146251   -2.534559    1.097634
     36          1           0        0.592336   -2.398420   -1.908267
     37          1           0       -0.425108   -1.817635   -0.610376
     38          1           0       -0.985291   -1.265331    3.182961
     39          1           0       -3.265294   -1.932861    2.335474
     40          1           0       -4.237184    0.776957   -2.579985
     41          1           0       -4.131374   -0.835221   -1.795212
     42          1           0       -4.859455    0.526191   -0.914098
 ---------------------------------------------------------------------

 SCF Done:  E(UB3LYP) =  -825.201378900     A.U. after   33 cycles
 SCF Done:  E(UB3LYP) =  -825.201378899     a.u. after    1 cycles

 The electronic state is 2-A.
 Alpha  occ. eigenvalues --  -19.04115 -14.17434 -14.16570 -14.15830 -10.12747
 Alpha  occ. eigenvalues --  -10.11647 -10.08529 -10.08064 -10.06481 -10.06403
 Alpha  occ. eigenvalues --  -10.06333 -10.06225 -10.06192 -10.06082 -10.05826
 Alpha  occ. eigenvalues --  -10.05449 -10.05311 -10.04949 -10.04733  -0.96377
 Alpha  occ. eigenvalues --   -0.83196  -0.79504  -0.75752  -0.72748  -0.67487
 Alpha  occ. eigenvalues --   -0.64806  -0.63567  -0.63125  -0.59552  -0.58701
 Alpha  occ. eigenvalues --   -0.53955  -0.51078  -0.50566  -0.49474  -0.48745
 Alpha  occ. eigenvalues --   -0.46171  -0.41414  -0.40289  -0.39867  -0.38000
 Alpha  occ. eigenvalues --   -0.36823  -0.36466  -0.35949  -0.34447  -0.33232
 Alpha  occ. eigenvalues --   -0.33112  -0.32389  -0.31946  -0.31281  -0.30673
 Alpha  occ. eigenvalues --   -0.29751  -0.28817  -0.27631  -0.27252  -0.27091
 Alpha  occ. eigenvalues --   -0.26573  -0.25685  -0.24986  -0.24507  -0.23897
 Alpha  occ. eigenvalues --   -0.22599  -0.22342  -0.22043  -0.20841  -0.19271
 Alpha  occ. eigenvalues --   -0.18103  -0.16604  -0.12776  -0.11486  -0.11027
 Alpha  occ. eigenvalues --   -0.10212   0.04922
 Alpha virt. eigenvalues --    0.06565   0.07130   0.07310   0.08274   0.08604
 Alpha virt. eigenvalues --    0.09252   0.09405   0.10093   0.10304   0.11122
 Alpha virt. eigenvalues --    0.11294   0.11325   0.11812   0.12168   0.12241

  Beta  occ. eigenvalues --  -19.04111 -14.17429 -14.16152 -14.15344 -10.12777
  Beta  occ. eigenvalues --  -10.11644 -10.08518 -10.08083 -10.06489 -10.06325
  Beta  occ. eigenvalues --  -10.06324 -10.06184 -10.06072 -10.06031 -10.05828
  Beta  occ. eigenvalues --  -10.05444 -10.05300 -10.04915 -10.04724  -0.96346
  Beta  occ. eigenvalues --   -0.82643  -0.79404  -0.75013  -0.72728  -0.67375
  Beta  occ. eigenvalues --   -0.64698  -0.63506  -0.63104  -0.59447  -0.58558
  Beta  occ. eigenvalues --   -0.53711  -0.51037  -0.50387  -0.49389  -0.48581
  Beta  occ. eigenvalues --   -0.46073  -0.41298  -0.40161  -0.39789  -0.37868
  Beta  occ. eigenvalues --   -0.36778  -0.36356  -0.35891  -0.34415  -0.33184
  Beta  occ. eigenvalues --   -0.33052  -0.32267  -0.31833  -0.31256  -0.30542
  Beta  occ. eigenvalues --   -0.29640  -0.28541  -0.27355  -0.27100  -0.27041
  Beta  occ. eigenvalues --   -0.26471  -0.25630  -0.24925  -0.24460  -0.23838
  Beta  occ. eigenvalues --   -0.22447  -0.22197  -0.21641  -0.20790  -0.19127
  Beta  occ. eigenvalues --   -0.16130  -0.16027  -0.12679  -0.11164  -0.10388
  Beta  occ. eigenvalues --   -0.09813
  Beta virt. eigenvalues --    0.06692   0.07301   0.07379   0.08342   0.08759
  Beta virt. eigenvalues --    0.09341   0.09415   0.10037   0.10253   0.10550
  Beta virt. eigenvalues --    0.11081   0.11306   0.11412   0.11792   0.12196

 Mulliken charges and spin densities:
               1          2
     1  C   -0.166925  -0.433057
     2  C   -0.016002  -0.012932
     3  N   -0.004707  -0.023872
     4  C   -0.519079   0.142689
     5  C    0.175063  -0.508535
     6  C    0.550197   0.336380
     7  C   -0.837595   0.367756
     8  C    0.449565  -1.177133
     9  C   -0.396804   0.040522
    10  C   -0.226655  -0.219176
    11  C   -0.224904  -0.033243
    12  C   -0.429217   0.149084
    13  N    0.030020   0.217396
    14  C    0.008757   0.055629
    15  C   -0.227682   0.097157
    16  N   -0.056930   0.171884
    17  C   -0.461175   0.006681
    18  O   -0.093127   0.007468
    19  C   -0.116157  -0.114204
    20  H    0.143448   0.007212
    21  H   -0.021209   0.143458
    22  H    0.033329   0.088289
    23  H   -0.029241   0.159599
    24  H   -0.025046   0.112114
    25  H    0.237292  -0.024481
    26  H    0.207352   0.037815
    27  H    0.144597   0.040765
    28  H   -0.174041   0.351201
    29  H    0.110962   0.021770
    30  H    0.152501  -0.010794
    31  H   -0.188548   0.337595
    32  H   -0.151186   0.306888
    33  H    0.143149  -0.024403
    34  H   -0.069275   0.223973
    35  H    0.205500  -0.065771
    36  H   -0.043036   0.204969
    37  H    0.378843  -0.172015
    38  H    0.086212   0.049469
    39  H    0.104513   0.011602
    40  H    0.059868   0.065755
    41  H    0.116943   0.041442
    42  H    0.140430   0.023053
 Sum of Mulliken charges =  -1.00000   1.00000

 Dipole moment (field-independent basis, Debye):
    X=             -1.1336    Y=              0.5000    Z=             -0.9885  Tot=              1.5850
 Quadrupole moment (field-independent basis, Debye-Ang):
   XX=           -164.9595   YY=           -156.3282   ZZ=           -141.5572
   XY=              0.5857   XZ=              8.3140   YZ=              0.1409

 Summary of Natural Population Analysis:

                                       Natural Population
                Natural  -----------------------------------------------
    Atom  No    Charge         Core      Valence    Rydberg      Total
 -----------------------------------------------------------------------
      C    1   -0.28563      0.99967     2.28145    0.00451     3.28563
      C    2   -0.08712      0.99965     2.07689    0.01058     3.08712
      N    3   -0.33869      0.99972     2.82765    0.01132     3.83869
      C    4   -0.01562      0.99956     2.00167    0.01439     3.01562
      C    5   -0.20488      0.99957     2.19529    0.01002     3.20488
      C    6   -0.00036      0.99948     1.98963    0.01125     3.00036
      C    7   -0.10853      0.99945     2.09950    0.00958     3.10853
      C    8   -0.20207      0.99962     2.19341    0.00904     3.20207
      C    9   -0.18730      0.99964     2.18022    0.00744     3.18730
      C   10   -0.19023      0.99963     2.18162    0.00898     3.19023
      C   11   -0.20302      0.99958     2.19490    0.00854     3.20302
      C   12    0.10543      0.99949     1.87991    0.01517     2.89457
      N   13   -0.16596      0.99967     2.65505    0.01124     3.66596
      C   14   -0.03046      0.99958     2.01583    0.01505     3.03046
      C   15    0.01887      0.99960     1.96666    0.01487     2.98113
      N   16   -0.21161      0.99966     2.70044    0.01152     3.71161
      C   17    0.24705      0.99941     1.73720    0.01634     2.75295
      O   18   -0.27956      0.99985     3.27129    0.00841     4.27956
      C   19   -0.10201      0.99960     2.09398    0.00843     3.10201
      H   20    0.09891      0.00000     0.39992    0.00117     0.40109
      H   21    0.09441      0.00000     0.40479    0.00080     0.40559
      H   22    0.09448      0.00000     0.40423    0.00130     0.40552
      H   23    0.08668      0.00000     0.41202    0.00130     0.41332
      H   24    0.07543      0.00000     0.42261    0.00196     0.42457
      H   25    0.18443      0.00000     0.31204    0.00353     0.31557
      H   26    0.09949      0.00000     0.39851    0.00200     0.40051
      H   27    0.10449      0.00000     0.39409    0.00142     0.39551
      H   28    0.10029      0.00000     0.39848    0.00122     0.39971
      H   29    0.09212      0.00000     0.40600    0.00188     0.40788
      H   30    0.09686      0.00000     0.40196    0.00117     0.40314
      H   31    0.09780      0.00000     0.40114    0.00106     0.40220
      H   32    0.09514      0.00000     0.40392    0.00094     0.40486
      H   33    0.09108      0.00000     0.40775    0.00117     0.40892
      H   34    0.09479      0.00000     0.40435    0.00086     0.40521
      H   35    0.10089      0.00000     0.39777    0.00134     0.39911
      H   36    0.09562      0.00000     0.40319    0.00119     0.40438
      H   37    0.11065      0.00000     0.38760    0.00175     0.38935
      H   38    0.08525      0.00000     0.41375    0.00100     0.41475
      H   39    0.08274      0.00000     0.41626    0.00100     0.41726
      H   40    0.08378      0.00000     0.41530    0.00092     0.41622
      H   41    0.08853      0.00000     0.40988    0.00159     0.41147
      H   42    0.08783      0.00000     0.41069    0.00148     0.41217
 =======================================================================
   * Total *   -0.00000     18.99242    51.76885    0.23873    71.00000

 Normal termination of Gaussian 16 at Mon Dec 14 15:26:36 2020.
