 Gaussian 16, Revision A.03,

 -----------------------------------------------------------
 # opt freq B3LYP/6-31G(d) empiricaldispersion=gd3bj scf=xqc
 -----------------------------------------------------------

 ------------------------------
 CID_76897415_JID_6377_neutraal
 ------------------------------
 Symbolic Z-matrix:
 Charge =  0 Multiplicity = 1

 SCF Done:  E(RB3LYP) =  -782.392395759     A.U. after   15 cycles
 SCF Done:  E(RB3LYP) =  -782.392274628     A.U. after   13 cycles
 SCF Done:  E(RB3LYP) =  -782.401083860     A.U. after   13 cycles
 SCF Done:  E(RB3LYP) =  -782.393250178     A.U. after   13 cycles
 SCF Done:  E(RB3LYP) =  -782.400642641     A.U. after   12 cycles
 SCF Done:  E(RB3LYP) =  -782.402399483     A.U. after   10 cycles
 SCF Done:  E(RB3LYP) =  -782.403123645     A.U. after   12 cycles
 SCF Done:  E(RB3LYP) =  -782.402818011     A.U. after   12 cycles
 SCF Done:  E(RB3LYP) =  -782.403303027     A.U. after   12 cycles
 SCF Done:  E(RB3LYP) =  -782.403515113     A.U. after   12 cycles
 SCF Done:  E(RB3LYP) =  -782.428739922     A.U. after    8 cycles
 SCF Done:  E(RB3LYP) =  -782.428740210     A.U. after    7 cycles
 SCF Done:  E(RB3LYP) =  -782.428740371     A.U. after    7 cycles
 SCF Done:  E(RB3LYP) =  -782.428740443     A.U. after    7 cycles
 SCF Done:  E(RB3LYP) =  -782.428740487     A.U. after    7 cycles
 Optimization completed.
    -- Stationary point found.
 Normal termination of Gaussian 16 at Thu Dec 10 23:10:31 2020.

 --------------------------------------------------------------------
 #N Geom=AllCheck Guess=TCheck SCRF=Check GenChk RB3LYP/6-31G(d) Freq
 --------------------------------------------------------------------

 Structure from the checkpoint file:  "JID_6377.chk"
 ------------------------------
 CID_76897415_JID_6377_neutraal
 ------------------------------
 Charge =  0 Multiplicity = 1

 SCF Done:  E(RB3LYP) =  -782.428740487     A.U. after    1 cycles

  Exact polarizability: 131.534   0.109 135.490  -0.093  -6.910 125.014
 Approx polarizability: 176.494   0.007 186.993  -4.934 -21.867 205.931

                      1                      2                      3
                      A                      A                      A
 Frequencies --     39.1471                55.6493                62.9842
 Red. masses --      4.3461                 5.2342                 4.1070
 Frc consts  --      0.0039                 0.0096                 0.0096
 IR Inten    --      0.8000                 1.3133                 0.3060

                      4                      5                      6
                      A                      A                      A
 Frequencies --     85.7312               110.8169               133.9211
 Red. masses --      4.6947                 2.4341                 3.2594
 Frc consts  --      0.0203                 0.0176                 0.0344
 IR Inten    --      1.5403                 5.2529                 1.4012

                      7                      8                      9
                      A                      A                      A
 Frequencies --    145.0645               166.1661               181.8398
 Red. masses --      2.9407                 4.1416                 1.8539
 Frc consts  --      0.0365                 0.0674                 0.0361
 IR Inten    --      0.3734                 2.4712                 2.2475

                     10                     11                     12
                      A                      A                      A
 Frequencies --    227.1930               257.6606               272.4242
 Red. masses --      2.6262                 2.7838                 2.6100
 Frc consts  --      0.0799                 0.1089                 0.1141
 IR Inten    --      1.0726                20.6596                 7.4507

                     13                     14                     15
                      A                      A                      A
 Frequencies --    273.2721               298.1522               308.3345
 Red. masses --      2.8445                 3.6296                 2.7343
 Frc consts  --      0.1252                 0.1901                 0.1532
 IR Inten    --      1.9508                 1.7881                12.1723

                     16                     17                     18
                      A                      A                      A
 Frequencies --    342.1526               357.5897               376.5385
 Red. masses --      1.4701                 2.7802                 1.4518
 Frc consts  --      0.1014                 0.2095                 0.1213
 IR Inten    --     53.7754                45.8452                49.1658

                     19                     20                     21
                      A                      A                      A
 Frequencies --    409.0332               414.2095               421.4533
 Red. masses --      2.1486                 2.5774                 2.5988
 Frc consts  --      0.2118                 0.2605                 0.2720
 IR Inten    --      2.5808                 7.5539                 8.4851

                     22                     23                     24
                      A                      A                      A
 Frequencies --    469.1337               479.6090               528.2450
 Red. masses --      2.9316                 2.8357                 2.3265
 Frc consts  --      0.3801                 0.3843                 0.3825
 IR Inten    --      3.8318                 8.4600                 4.3776

                     25                     26                     27
                      A                      A                      A
 Frequencies --    542.3552               554.7419               619.2768
 Red. masses --      3.7663                 1.9334                 1.7881
 Frc consts  --      0.6527                 0.3505                 0.4040
 IR Inten    --      5.5907                 3.1736                86.2100

                     28                     29                     30
                      A                      A                      A
 Frequencies --    632.5834               655.0520               708.2102
 Red. masses --      3.1847                 3.1035                 4.0333
 Frc consts  --      0.7508                 0.7846                 1.1919
 IR Inten    --     25.1527                24.0053                46.8352

                     31                     32                     33
                      A                      A                      A
 Frequencies --    748.2051               784.3680               805.7744
 Red. masses --      1.9102                 2.7148                 1.4977
 Frc consts  --      0.6301                 0.9841                 0.5729
 IR Inten    --    164.6495                17.2408                 1.6260

                     34                     35                     36
                      A                      A                      A
 Frequencies --    848.8596               869.8031               908.8374
 Red. masses --      3.1158                 2.4263                 2.0564
 Frc consts  --      1.3228                 1.0815                 1.0008
 IR Inten    --     11.6405                 4.8127                 1.4935

                     37                     38                     39
                      A                      A                      A
 Frequencies --    927.8796               942.5018               944.6020
 Red. masses --      2.3046                 4.0395                 3.4562
 Frc consts  --      1.1690                 2.1142                 1.8170
 IR Inten    --      3.0054                11.6971                26.2113

                     40                     41                     42
                      A                      A                      A
 Frequencies --    961.1345               979.7700              1031.5767
 Red. masses --      1.4894                 3.9361                 2.0251
 Frc consts  --      0.8106                 2.2262                 1.2697
 IR Inten    --      2.2659                69.4492                 2.3361

                     43                     44                     45
                      A                      A                      A
 Frequencies --   1049.7846              1069.5894              1085.7287
 Red. masses --      1.8070                 2.1118                 2.9752
 Frc consts  --      1.1733                 1.4234                 2.0664
 IR Inten    --     22.6238                 7.8839                10.9375

                     46                     47                     48
                      A                      A                      A
 Frequencies --   1096.0800              1111.9992              1140.4170
 Red. masses --      1.7937                 1.7118                 4.0026
 Frc consts  --      1.2697                 1.2471                 3.0671
 IR Inten    --      2.4275                 1.1090               130.9271

                     49                     50                     51
                      A                      A                      A
 Frequencies --   1163.4857              1179.2114              1194.0813
 Red. masses --      1.6748                 1.5634                 1.2930
 Frc consts  --      1.3358                 1.2809                 1.0862
 IR Inten    --     42.9249                13.0158                 4.4758

                     52                     53                     54
                      A                      A                      A
 Frequencies --   1204.9387              1225.1180              1242.5626
 Red. masses --      2.0426                 1.5469                 1.8394
 Frc consts  --      1.7473                 1.3680                 1.6733
 IR Inten    --      8.6904                22.6747                 4.5685

                     55                     56                     57
                      A                      A                      A
 Frequencies --   1298.2102              1316.2745              1324.5668
 Red. masses --      1.3813                 1.3628                 1.2043
 Frc consts  --      1.3716                 1.3912                 1.2449
 IR Inten    --     12.5108                13.9633                 1.9319

                     58                     59                     60
                      A                      A                      A
 Frequencies --   1327.0654              1350.5597              1370.8311
 Red. masses --      1.3511                 2.1583                 1.3416
 Frc consts  --      1.4019                 2.3194                 1.4854
 IR Inten    --     17.0276                63.2945                 1.7944

                     61                     62                     63
                      A                      A                      A
 Frequencies --   1384.6470              1390.2390              1404.1443
 Red. masses --      1.6949                 1.4065                 1.4596
 Frc consts  --      1.9146                 1.6017                 1.6956
 IR Inten    --    102.5053                 0.3224                 0.5137

                     64                     65                     66
                      A                      A                      A
 Frequencies --   1408.9415              1412.2435              1426.2126
 Red. masses --      1.4677                 1.4053                 1.6903
 Frc consts  --      1.7166                 1.6513                 2.0257
 IR Inten    --      1.4491                 0.8005                10.0709

                     67                     68                     69
                      A                      A                      A
 Frequencies --   1436.4758              1486.3241              1500.3189
 Red. masses --      2.0031                 1.3936                 1.1193
 Frc consts  --      2.4353                 1.8139                 1.4845
 IR Inten    --     90.4770                17.1806                 0.8889

                     70                     71                     72
                      A                      A                      A
 Frequencies --   1512.3830              1516.3291              1517.7540
 Red. masses --      1.0897                 1.0884                 1.0669
 Frc consts  --      1.4685                 1.4744                 1.4480
 IR Inten    --      6.5758                 0.8147                 3.5854

                     73                     74                     75
                      A                      A                      A
 Frequencies --   1523.0498              1526.0756              1528.7114
 Red. masses --      1.1018                 1.0874                 1.0838
 Frc consts  --      1.5058                 1.4921                 1.4923
 IR Inten    --      7.9423                 5.7389                11.2803

                     76                     77                     78
                      A                      A                      A
 Frequencies --   1537.8410              1541.9399              1662.9376
 Red. masses --      1.0706                 1.0958                 1.2043
 Frc consts  --      1.4918                 1.5350                 1.9622
 IR Inten    --      6.5287                 9.6068                75.1531

                     79                     80                     81
                      A                      A                      A
 Frequencies --   1719.6926              1776.8382              3016.7781
 Red. masses --      5.4120                 7.4886                 1.0411
 Frc consts  --      9.4300                13.9299                 5.5823
 IR Inten    --     53.6627               336.8610                63.4772

                     82                     83                     84
                      A                      A                      A
 Frequencies --   3017.6108              3020.8325              3046.2591
 Red. masses --      1.0674                 1.0698                 1.0630
 Frc consts  --      5.7266                 5.7518                 5.8117
 IR Inten    --      8.9090                45.8130                18.7654

                     85                     86                     87
                      A                      A                      A
 Frequencies --   3049.7432              3053.4280              3059.8980
 Red. masses --      1.0656                 1.0708                 1.0646
 Frc consts  --      5.8394                 5.8822                 5.8731
 IR Inten    --     45.2360                23.8009                28.0718

                     88                     89                     90
                      A                      A                      A
 Frequencies --   3076.5803              3077.1380              3086.1931
 Red. masses --      1.1015                 1.0912                 1.1025
 Frc consts  --      6.1427                 6.0876                 6.1867
 IR Inten    --     35.1267                62.6283                51.9942

                     91                     92                     93
                      A                      A                      A
 Frequencies --   3105.0942              3135.1902              3136.9318
 Red. masses --      1.1016                 1.0941                 1.1005
 Frc consts  --      6.2578                 6.3362                 6.3803
 IR Inten    --     46.5480                 7.9853                 3.7838

                     94                     95                     96
                      A                      A                      A
 Frequencies --   3143.5208              3169.4891              3537.9620
 Red. masses --      1.1010                 1.0891                 1.0479
 Frc consts  --      6.4103                 6.4458                 7.7284
 IR Inten    --     28.7781                 2.8727                11.0897

                     97                     98                     99
                      A                      A                      A
 Frequencies --   3582.9413              3646.0102              3773.8208
 Red. masses --      1.0748                 1.0970                 1.0679
 Frc consts  --      8.1296                 8.5923                 8.9611
 IR Inten    --     18.7099                13.5881                72.6998

 - Thermochemistry -
 -------------------
 Temperature   298.150 Kelvin.  Pressure   1.00000 Atm.
 Atom     1 has atomic number  6 and mass  12.00000

 Molecular mass:   229.14264 amu.
 Principal axes and moments of inertia in atomic units:
                           1         2         3
     Eigenvalues --  3047.111673604.675914703.79586
           X            0.99922   0.03817   0.01048
           Y           -0.03836   0.99910   0.01836
           Z           -0.00977  -0.01874   0.99978
 This molecule is an asymmetric top.
 Rotational symmetry number  1.
 Warning -- assumption of classical behavior for rotation
           may cause significant error
 Rotational temperatures (Kelvin)      0.02842     0.02403     0.01841
 Rotational constants (GHZ):           0.59228     0.50067     0.38368
 Zero-point vibrational energy     798991.1 (Joules/Mol)
                                  190.96345 (Kcal/Mol)
 Warning -- explicit consideration of  27 degrees of freedom as
           vibrations may cause significant error
 Vibrational temperatures:     56.32    80.07    90.62   123.35   159.44
          (Kelvin)            192.68   208.72   239.08   261.63   326.88
                              370.72   391.96   393.18   428.97   443.62
                              492.28   514.49   541.75   588.51   595.96
                              606.38   674.98   690.05   760.03   780.33
                              798.15   891.00   910.15   942.47  1018.96
                             1076.50  1128.53  1159.33  1221.32  1251.45
                             1307.61  1335.01  1356.05  1359.07  1382.86
                             1409.67  1484.21  1510.41  1538.90  1562.12
                             1577.01  1599.92  1640.81  1674.00  1696.62
                             1718.02  1733.64  1762.67  1787.77  1867.83
                             1893.83  1905.76  1909.35  1943.15  1972.32
                             1992.20  2000.24  2020.25  2027.15  2031.90
                             2052.00  2066.77  2138.49  2158.62  2175.98
                             2181.66  2183.71  2191.33  2195.68  2199.47
                             2212.61  2218.51  2392.60  2474.25  2556.47
                             4340.47  4341.67  4346.30  4382.89  4387.90
                             4393.20  4402.51  4426.51  4427.32  4440.34
                             4467.54  4510.84  4513.35  4522.83  4560.19
                             5090.34  5155.05  5245.80  5429.69

 Zero-point correction=                           0.304320 (Hartree/Particle)
 Thermal correction to Energy=                    0.321038
 Thermal correction to Enthalpy=                  0.321982
 Thermal correction to Gibbs Free Energy=         0.260559
 Sum of electronic and zero-point Energies=           -782.124421
 Sum of electronic and thermal Energies=              -782.107703
 Sum of electronic and thermal Enthalpies=            -782.106759
 Sum of electronic and thermal Free Energies=         -782.168181

                     E (Thermal)             CV                S
                      KCal/Mol        Cal/Mol-Kelvin    Cal/Mol-Kelvin
 Total                  201.454             63.914            129.275
 Electronic               0.000              0.000              0.000
 Translational            0.889              2.981             42.190
 Rotational               0.889              2.981             32.313
 Vibrational            199.677             57.953             54.772
 Vibration     1          0.594              1.981              5.302
 Vibration     2          0.596              1.975              4.606
 Vibration     3          0.597              1.972              4.361
 Vibration     4          0.601              1.959              3.755
 Vibration     5          0.607              1.941              3.255
 Vibration     6          0.613              1.919              2.889
 Vibration     7          0.616              1.908              2.736
 Vibration     8          0.624              1.884              2.478
 Vibration     9          0.630              1.864              2.309
 Vibration    10          0.651              1.800              1.901
 Vibration    11          0.667              1.750              1.678
 Vibration    12          0.675              1.724              1.581
 Vibration    13          0.676              1.723              1.575
 Vibration    14          0.691              1.677              1.427
 Vibration    15          0.698              1.658              1.371
 Vibration    16          0.721              1.591              1.202
 Vibration    17          0.733              1.560              1.133
 Vibration    18          0.747              1.520              1.053
 Vibration    19          0.773              1.451              0.930
 Vibration    20          0.778              1.439              0.912
 Vibration    21          0.784              1.424              0.887
 Vibration    22          0.826              1.319              0.740
 Vibration    23          0.836              1.295              0.711
 Vibration    24          0.883              1.187              0.591
 Vibration    25          0.897              1.156              0.560
 Vibration    26          0.910              1.129              0.534
 Vibration    27          0.979              0.991              0.418

 Optimization completed.
    -- Stationary point found.
 Normal termination of Gaussian 16 at Thu Dec 10 23:23:52 2020.

 ----------------------------------------------------------------------
 # B3LYP/6-311++G(d,p) empiricaldispersion=gd3bj scf=xqc pop=npa geom=c
 heck
 ----------------------------------------------------------------------

 --------------------------------------
 CID_76897415_JID_6377_Energie_neutraal
 --------------------------------------
 Structure from the checkpoint file:  "JID_6377.chk"
 Charge =  0 Multiplicity = 1

 SCF Done:  E(RB3LYP) =  -782.672168545     A.U. after   15 cycles
 Normal termination of Gaussian 16 at Thu Dec 10 23:29:12 2020.

 ----------------------------------------------------------------------
 # B3LYP/6-311++G(d,p) empiricaldispersion=gd3bj scf=xqc pop=npa geom=c
 heck
 ----------------------------------------------------------------------

 ------------------------------------
 CID_76897415_JID_6377_Energie_kation
 ------------------------------------
 Structure from the checkpoint file:  "JID_6377.chk"
 Charge =  1 Multiplicity = 2

 SCF Done:  E(UB3LYP) =  -782.369447512     A.U. after   28 cycles
 Normal termination of Gaussian 16 at Thu Dec 10 23:42:56 2020.
 Gaussian 16:  ES64L-G16RevA.03 25-Dec-2016

 ----------------------------------------------------------------------
 # B3LYP/6-311++G(d,p) empiricaldispersion=gd3bj scf=xqc pop=npa geom=c
 heck
 ----------------------------------------------------------------------

 -----------------------------------
 CID_76897415_JID_6377_Energie_anion
 -----------------------------------
 Structure from the checkpoint file:  "JID_6377.chk"
 Charge = -1 Multiplicity = 2

                         Standard orientation:
 ---------------------------------------------------------------------
 Center     Atomic      Atomic             Coordinates (Angstroms)
 Number     Number       Type             X           Y           Z
 ---------------------------------------------------------------------
      1          6           0       -3.618646    0.917522    0.020880
      2          8           0       -2.626314    0.407463   -0.856425
      3          6           0       -2.116487   -0.856909   -0.455638
      4          6           0       -1.360032   -0.773538    0.875037
      5          8           0       -1.892347   -1.149646    1.913777
      6          7           0       -0.120604   -0.180357    0.906808
      7          6           0        0.852729    0.000355   -0.185925
      8          6           0        0.379867    1.096127   -1.173792
      9          6           0        0.178212    2.441952   -0.471195
     10          6           0        1.469727    2.920978    0.200790
     11          6           0        2.023356    1.854799    1.152553
     12          6           0        2.177394    0.495108    0.456712
     13          6           0        1.117193   -1.350548   -0.875037
     14          7           0        1.471514   -2.448700   -0.302937
     15          8           0        1.556683   -2.333943    1.110313
     16          7           0        0.870671   -1.442006   -2.245819
     17          1           0       -3.965908    1.856171   -0.417505
     18          1           0       -3.222537    1.108483    1.026629
     19          1           0       -4.464528    0.220016    0.110287
     20          1           0       -2.931347   -1.574800   -0.295522
     21          1           0       -1.482452   -1.203220   -1.274976
     22          1           0        0.301490   -0.324033    1.816881
     23          1           0        1.160608    1.220849   -1.938483
     24          1           0       -0.539186    0.805347   -1.680698
     25          1           0       -0.617252    2.333591    0.273977
     26          1           0       -0.169422    3.179579   -1.203894
     27          1           0        1.297661    3.859978    0.740607
     28          1           0        2.220400    3.136185   -0.574309
     29          1           0        1.351854    1.755196    2.014783
     30          1           0        2.997310    2.162984    1.551675
     31          1           0        2.549160   -0.262255    1.150314
     32          1           0        2.916967    0.579238   -0.349864
     33          1           0        1.756322   -3.247099    1.363930
     34          1           0        1.176194   -0.649694   -2.796313
     35          1           0        1.189547   -2.325144   -2.631516
 ---------------------------------------------------------------------

 SCF Done:  E(UB3LYP) =  -782.661221768     A.U. after   33 cycles
 SCF Done:  E(UB3LYP) =  -782.661221768     a.u. after    1 cycles

 The electronic state is 2-A.
 Alpha  occ. eigenvalues --  -19.06632 -19.04756 -19.00125 -14.24719 -14.23913
 Alpha  occ. eigenvalues --  -14.22426 -10.18060 -10.14636 -10.14000 -10.13233
 Alpha  occ. eigenvalues --  -10.12803 -10.07384 -10.06984 -10.06646 -10.06311
 Alpha  occ. eigenvalues --  -10.06262  -0.98212  -0.96292  -0.94279  -0.85150
 Alpha  occ. eigenvalues --   -0.82498  -0.72874  -0.72605  -0.65883  -0.65145
 Alpha  occ. eigenvalues --   -0.64617  -0.57712  -0.54157  -0.52240  -0.49932
 Alpha  occ. eigenvalues --   -0.48011  -0.46017  -0.45023  -0.41551  -0.40809
 Alpha  occ. eigenvalues --   -0.39810  -0.38658  -0.38103  -0.38014  -0.36127
 Alpha  occ. eigenvalues --   -0.35338  -0.34608  -0.33682  -0.32766  -0.31549
 Alpha  occ. eigenvalues --   -0.30530  -0.29792  -0.29526  -0.28279  -0.27963
 Alpha  occ. eigenvalues --   -0.27682  -0.25285  -0.24858  -0.23172  -0.22868
 Alpha  occ. eigenvalues --   -0.22571  -0.20871  -0.19592  -0.19314  -0.16377
 Alpha  occ. eigenvalues --   -0.15364  -0.12935   0.04380
 Alpha virt. eigenvalues --    0.06555   0.06903   0.07160   0.08024   0.08485
 Alpha virt. eigenvalues --    0.08865   0.09337   0.09704   0.10155   0.10793
 Alpha virt. eigenvalues --    0.11449   0.11855   0.11943   0.12724   0.13260

  Beta  occ. eigenvalues --  -19.06624 -19.04753 -19.00124 -14.24701 -14.23904
  Beta  occ. eigenvalues --  -14.22368 -10.18059 -10.14625 -10.13998 -10.13226
  Beta  occ. eigenvalues --  -10.12795 -10.07368 -10.06971 -10.06618 -10.06288
  Beta  occ. eigenvalues --  -10.06251  -0.98196  -0.96287  -0.94274  -0.85108
  Beta  occ. eigenvalues --   -0.82461  -0.72836  -0.72545  -0.65864  -0.65107
  Beta  occ. eigenvalues --   -0.64588  -0.57694  -0.54105  -0.52196  -0.49889
  Beta  occ. eigenvalues --   -0.47939  -0.45979  -0.44978  -0.41536  -0.40788
  Beta  occ. eigenvalues --   -0.39781  -0.38624  -0.38055  -0.37967  -0.36093
  Beta  occ. eigenvalues --   -0.35312  -0.34594  -0.33653  -0.32734  -0.31534
  Beta  occ. eigenvalues --   -0.30504  -0.29766  -0.29504  -0.28249  -0.27917
  Beta  occ. eigenvalues --   -0.27658  -0.25263  -0.24817  -0.23129  -0.22827
  Beta  occ. eigenvalues --   -0.22528  -0.20840  -0.19578  -0.19290  -0.16363
  Beta  occ. eigenvalues --   -0.15350  -0.12880
  Beta virt. eigenvalues --    0.06464   0.07083   0.07571   0.07926   0.08076
  Beta virt. eigenvalues --    0.08860   0.09472   0.09587   0.09925   0.10503
  Beta virt. eigenvalues --    0.11080   0.11735   0.12162   0.12593   0.13025

 Mulliken charges and spin densities:
               1          2
     1  C   -0.114146  -0.179081
     2  O   -0.039423  -0.000649
     3  C   -0.544026   0.038236
     4  C   -0.078653  -0.008887
     5  O   -0.265068   0.006031
     6  N   -0.202261   0.123263
     7  C    0.089668   0.587440
     8  C    0.924572  -1.329912
     9  C   -0.361708   0.014890
    10  C    1.489166  -2.064027
    11  C   -0.019536  -0.250890
    12  C   -0.538427   0.083992
    13  C    0.300367  -0.740458
    14  N   -0.234068   0.001595
    15  O   -0.117249  -0.009160
    16  N   -0.439837   0.123823
    17  H    0.003373   0.145357
    18  H    0.127915   0.049826
    19  H    0.037805   0.084199
    20  H    0.093492   0.081597
    21  H    0.138650   0.087077
    22  H    0.278657   0.068885
    23  H   -0.654605   0.823100
    24  H    0.491356  -0.223018
    25  H    0.327017  -0.227276
    26  H   -0.333586   0.524804
    27  H   -0.357614   0.523790
    28  H    0.056386   0.082927
    29  H    0.118925  -0.027140
    30  H   -0.386188   0.575346
    31  H    0.248980  -0.056488
    32  H   -0.529168   0.729815
    33  H    0.227090   0.058385
    34  H   -0.440060   0.717545
    35  H   -0.297800   0.585062
 Sum of Mulliken charges =  -1.00000   1.00000

 Dipole moment (field-independent basis, Debye):
    X=             -4.6986    Y=             -2.2625    Z=              5.3499  Tot=              7.4711
 Quadrupole moment (field-independent basis, Debye-Ang):
   XX=           -147.5110   YY=           -145.3682   ZZ=           -151.4290
   XY=            -10.3776   XZ=             15.3463   YZ=             -0.8575

 Summary of Natural Population Analysis:

                                       Natural Population
                Natural  -----------------------------------------------
    Atom  No    Charge         Core      Valence    Rydberg      Total
 -----------------------------------------------------------------------
      C    1   -0.09901      0.99961     2.09121    0.00818     3.09901
      O    2   -0.29114      0.99989     3.28255    0.00869     4.29114
      C    3   -0.05661      0.99954     2.04430    0.01277     3.05661
      C    4    0.33328      0.99968     1.64555    0.02149     2.66672
      O    5   -0.32138      0.99988     3.31565    0.00585     4.32138
      N    6   -0.31850      0.99964     2.80824    0.01062     3.81850
      C    7    0.04028      0.99950     1.94268    0.01754     2.95972
      C    8   -0.20154      0.99959     2.18910    0.01285     3.20154
      C    9   -0.18794      0.99962     2.17880    0.00952     3.18794
      C   10   -0.18878      0.99962     2.18092    0.00824     3.18878
      C   11   -0.18968      0.99962     2.18143    0.00862     3.18968
      C   12   -0.19261      0.99959     2.18270    0.01033     3.19261
      C   13    0.20260      0.99954     1.77674    0.02111     2.79740
      N   14   -0.12883      0.99958     2.61570    0.01355     3.62883
      O   15   -0.29527      0.99990     3.28942    0.00595     4.29527
      N   16   -0.39811      0.99971     2.88824    0.01017     3.89811
      H   17    0.08968      0.00000     0.40928    0.00105     0.41032
      H   18    0.08476      0.00000     0.41391    0.00133     0.41524
      H   19    0.07805      0.00000     0.42065    0.00130     0.42195
      H   20    0.08882      0.00000     0.40994    0.00124     0.41118
      H   21    0.10870      0.00000     0.38915    0.00216     0.39130
      H   22    0.19799      0.00000     0.29916    0.00285     0.30201
      H   23    0.10137      0.00000     0.39542    0.00321     0.39863
      H   24    0.11431      0.00000     0.38275    0.00294     0.38569
      H   25    0.09679      0.00000     0.40128    0.00193     0.40321
      H   26    0.10169      0.00000     0.39727    0.00104     0.39831
      H   27    0.09728      0.00000     0.40172    0.00100     0.40272
      H   28    0.09682      0.00000     0.40125    0.00192     0.40318
      H   29    0.09191      0.00000     0.40671    0.00138     0.40809
      H   30    0.10239      0.00000     0.39655    0.00106     0.39761
      H   31    0.11135      0.00000     0.38716    0.00149     0.38865
      H   32    0.10681      0.00000     0.39122    0.00197     0.39319
      H   33    0.23414      0.00000     0.26310    0.00276     0.26586
      H   34    0.19753      0.00000     0.29361    0.00886     0.30247
      H   35    0.19287      0.00000     0.30297    0.00416     0.30713
 =======================================================================
   * Total *   -0.00000     15.99452    45.77633    0.22915    62.00000

 Normal termination of Gaussian 16 at Thu Dec 10 23:59:38 2020.
