 Gaussian 16, Revision A.03,

 -----------------------------------------------------------
 # opt freq B3LYP/6-31G(d) empiricaldispersion=gd3bj scf=xqc
 -----------------------------------------------------------

 ------------------------------
 CID_53915902_JID_4292_neutraal
 ------------------------------
 Symbolic Z-matrix:
 Charge =  0 Multiplicity = 1

 SCF Done:  E(RB3LYP) =  -583.880506788     A.U. after   14 cycles
 SCF Done:  E(RB3LYP) =  -583.886143712     A.U. after   12 cycles
 SCF Done:  E(RB3LYP) =  -583.886019287     A.U. after   13 cycles
 SCF Done:  E(RB3LYP) =  -583.886758582     A.U. after   11 cycles
 SCF Done:  E(RB3LYP) =  -583.887148995     A.U. after   11 cycles
 SCF Done:  E(RB3LYP) =  -583.887229097     A.U. after   11 cycles
 SCF Done:  E(RB3LYP) =  -583.887306009     A.U. after   10 cycles
 SCF Done:  E(RB3LYP) =  -583.887318042     A.U. after    8 cycles
 SCF Done:  E(RB3LYP) =  -583.887323249     A.U. after    9 cycles
 SCF Done:  E(RB3LYP) =  -583.887324642     A.U. after    8 cycles
 SCF Done:  E(RB3LYP) =  -583.887325961     A.U. after    8 cycles
 SCF Done:  E(RB3LYP) =  -583.887326702     A.U. after    8 cycles
 SCF Done:  E(RB3LYP) =  -583.887326749     A.U. after    7 cycles
 Optimization completed.
    -- Stationary point found.
 Normal termination of Gaussian 16 at Thu Dec 10 09:26:24 2020.

 --------------------------------------------------------------------
 #N Geom=AllCheck Guess=TCheck SCRF=Check GenChk RB3LYP/6-31G(d) Freq
 --------------------------------------------------------------------

 Structure from the checkpoint file:  "JID_4292.chk"
 ------------------------------
 CID_53915902_JID_4292_neutraal
 ------------------------------
 Charge =  0 Multiplicity = 1

 SCF Done:  E(RB3LYP) =  -583.887326749     A.U. after    1 cycles

  Exact polarizability: 165.571  -4.438 155.040   3.065   0.984 106.720
 Approx polarizability: 212.533  -5.895 217.730   8.217   0.812 168.574

                      1                      2                      3
                      A                      A                      A
 Frequencies --     44.1603                64.1434                88.1110
 Red. masses --      3.4028                 3.3210                 3.1192
 Frc consts  --      0.0039                 0.0081                 0.0143
 IR Inten    --      0.2934                 0.0614                 0.2860

                      4                      5                      6
                      A                      A                      A
 Frequencies --     97.1899               103.9130               136.8569
 Red. masses --      3.0905                 3.5748                 1.9160
 Frc consts  --      0.0172                 0.0227                 0.0211
 IR Inten    --      0.2787                 0.6548                 0.5531

                      7                      8                      9
                      A                      A                      A
 Frequencies --    162.4065               181.6534               194.8525
 Red. masses --      1.6002                 1.1309                 2.0148
 Frc consts  --      0.0249                 0.0220                 0.0451
 IR Inten    --      1.9340                 2.7477                 0.1533

                     10                     11                     12
                      A                      A                      A
 Frequencies --    207.1365               220.2641               251.4745
 Red. masses --      1.6990                 1.0661                 2.8433
 Frc consts  --      0.0430                 0.0305                 0.1059
 IR Inten    --      9.0069                 0.2451                 9.5943

                     13                     14                     15
                      A                      A                      A
 Frequencies --    255.4142               265.0789               276.0736
 Red. masses --      1.2119                 1.2538                 2.3798
 Frc consts  --      0.0466                 0.0519                 0.1069
 IR Inten    --     81.4636                 4.2622                 9.5950

                     16                     17                     18
                      A                      A                      A
 Frequencies --    315.5685               335.7766               344.6092
 Red. masses --      3.0894                 2.3270                 2.6756
 Frc consts  --      0.1813                 0.1546                 0.1872
 IR Inten    --      1.1889                 0.6715                 1.2060

                     19                     20                     21
                      A                      A                      A
 Frequencies --    385.3993               404.5573               435.1361
 Red. masses --      2.2701                 2.6885                 2.4345
 Frc consts  --      0.1987                 0.2593                 0.2716
 IR Inten    --      2.0041                 1.3838                 1.4191

                     22                     23                     24
                      A                      A                      A
 Frequencies --    467.3091               495.9099               534.3552
 Red. masses --      2.6343                 2.9255                 3.4325
 Frc consts  --      0.3389                 0.4239                 0.5775
 IR Inten    --      0.4229                 0.6552                 0.0955

                     25                     26                     27
                      A                      A                      A
 Frequencies --    595.9224               615.9459               703.1149
 Red. masses --      2.7610                 3.3749                 2.6224
 Frc consts  --      0.5777                 0.7544                 0.7638
 IR Inten    --      1.6495                 5.0849                 2.9476

                     28                     29                     30
                      A                      A                      A
 Frequencies --    779.5425               834.0692               843.3387
 Red. masses --      4.9969                 2.8913                 1.9279
 Frc consts  --      1.7891                 1.1851                 0.8079
 IR Inten    --      2.6057                 2.3657                 2.8476

                     31                     32                     33
                      A                      A                      A
 Frequencies --    893.5447               901.1020               933.0754
 Red. masses --      1.7787                 1.6329                 1.9608
 Frc consts  --      0.8367                 0.7812                 1.0058
 IR Inten    --      1.3320                 1.1197                 5.7561

                     34                     35                     36
                      A                      A                      A
 Frequencies --    945.1436               958.0932               975.5649
 Red. masses --      1.2015                 1.8988                 1.5609
 Frc consts  --      0.6324                 1.0269                 0.8753
 IR Inten    --      0.9870                 2.1601                 0.7071

                     37                     38                     39
                      A                      A                      A
 Frequencies --    988.2536               995.3779              1003.1807
 Red. masses --      1.4639                 1.4401                 2.0926
 Frc consts  --      0.8424                 0.8407                 1.2408
 IR Inten    --      9.5626                 2.8901                 2.1571

                     40                     41                     42
                      A                      A                      A
 Frequencies --   1032.3353              1047.6673              1065.6694
 Red. masses --      1.6190                 3.4488                 2.1565
 Frc consts  --      1.0166                 2.2303                 1.4429
 IR Inten    --      0.6267                82.6106                10.3256

                     43                     44                     45
                      A                      A                      A
 Frequencies --   1074.2628              1098.9022              1103.3294
 Red. masses --      1.7498                 1.7281                 2.0223
 Frc consts  --      1.1898                 1.2295                 1.4504
 IR Inten    --      1.9064                 1.1107                 2.0014

                     46                     47                     48
                      A                      A                      A
 Frequencies --   1141.9364              1152.8820              1195.6270
 Red. masses --      1.9223                 1.7366                 1.6679
 Frc consts  --      1.4769                 1.3599                 1.4048
 IR Inten    --      0.2511                 1.7003                 4.0694

                     49                     50                     51
                      A                      A                      A
 Frequencies --   1203.8782              1207.8654              1223.7164
 Red. masses --      1.8734                 1.8758                 2.2822
 Frc consts  --      1.5997                 1.6124                 2.0136
 IR Inten    --     34.9131                 2.7498                 4.2053

                     52                     53                     54
                      A                      A                      A
 Frequencies --   1240.7298              1254.0947              1273.9398
 Red. masses --      1.4679                 1.1175                 1.6221
 Frc consts  --      1.3314                 1.0356                 1.5510
 IR Inten    --      0.5515                48.6010                 7.6775

                     55                     56                     57
                      A                      A                      A
 Frequencies --   1298.7659              1304.5262              1317.1333
 Red. masses --      1.4187                 1.4310                 1.4195
 Frc consts  --      1.4099                 1.4348                 1.4509
 IR Inten    --     19.9945                 8.2649                 1.9954

                     58                     59                     60
                      A                      A                      A
 Frequencies --   1357.5959              1364.5926              1370.0785
 Red. masses --      1.5156                 1.5217                 1.4728
 Frc consts  --      1.6458                 1.6695                 1.6289
 IR Inten    --      0.0774                 3.7520                 0.9327

                     61                     62                     63
                      A                      A                      A
 Frequencies --   1396.8489              1401.9624              1430.4468
 Red. masses --      1.5773                 1.4682                 1.2459
 Frc consts  --      1.8133                 1.7002                 1.5020
 IR Inten    --      2.2498                 0.4492                 2.4434

                     64                     65                     66
                      A                      A                      A
 Frequencies --   1438.1953              1443.8347              1450.4308
 Red. masses --      1.3071                 1.2956                 1.2274
 Frc consts  --      1.5929                 1.5913                 1.5214
 IR Inten    --      2.0176                 2.8905                 6.9947

                     67                     68                     69
                      A                      A                      A
 Frequencies --   1475.7326              1503.7987              1509.1832
 Red. masses --      1.5049                 1.0478                 1.0583
 Frc consts  --      1.9309                 1.3960                 1.4201
 IR Inten    --      5.4158                 7.8020                11.5141

                     70                     71                     72
                      A                      A                      A
 Frequencies --   1512.1133              1517.3760              1521.0332
 Red. masses --      1.0787                 1.0636                 1.0517
 Frc consts  --      1.4532                 1.4428                 1.4336
 IR Inten    --      2.0613                 5.5599                 1.0937

                     73                     74                     75
                      A                      A                      A
 Frequencies --   1522.5516              1526.6165              1529.1128
 Red. masses --      1.0600                 1.0683                 1.0866
 Frc consts  --      1.4478                 1.4669                 1.4970
 IR Inten    --      0.9496                11.6293                 0.6076

                     76                     77                     78
                      A                      A                      A
 Frequencies --   1536.5131              1546.5878              1547.0706
 Red. masses --      1.0539                 1.0521                 1.0877
 Frc consts  --      1.4660                 1.4827                 1.5338
 IR Inten    --      2.6724                 3.5474                 7.2047

                     79                     80                     81
                      A                      A                      A
 Frequencies --   1713.6778              1737.3288              2952.6849
 Red. masses --      7.4778                 7.4600                 1.0810
 Frc consts  --     12.9385                13.2665                 5.5527
 IR Inten    --      3.6063                 1.1627                23.2885

                     82                     83                     84
                      A                      A                      A
 Frequencies --   2970.0476              2999.3571              3009.3242
 Red. masses --      1.0706                 1.0708                 1.0836
 Frc consts  --      5.5643                 5.6758                 5.7819
 IR Inten    --     74.3290                46.2170                21.7763

                     85                     86                     87
                      A                      A                      A
 Frequencies --   3025.2920              3032.7783              3039.4729
 Red. masses --      1.0431                 1.0428                 1.0393
 Frc consts  --      5.6251                 5.6511                 5.6569
 IR Inten    --     48.5659                41.3997                13.5011

                     88                     89                     90
                      A                      A                      A
 Frequencies --   3044.3976              3046.0393              3062.9730
 Red. masses --      1.0575                 1.0510                 1.0930
 Frc consts  --      5.7746                 5.7456                 6.0415
 IR Inten    --     15.5442                65.1856                10.5121

                     91                     92                     93
                      A                      A                      A
 Frequencies --   3065.0861              3075.4269              3092.4050
 Red. masses --      1.0920                 1.0906                 1.0919
 Frc consts  --      6.0442                 6.0775                 6.1520
 IR Inten    --     72.9621                34.8266                16.8468

                     94                     95                     96
                      A                      A                      A
 Frequencies --   3097.9656              3104.9719              3110.0254
 Red. masses --      1.1009                 1.1001                 1.1000
 Frc consts  --      6.2251                 6.2487                 6.2686
 IR Inten    --      4.0125                51.9800                64.1440

                     97                     98                     99
                      A                      A                      A
 Frequencies --   3121.4419              3126.7000              3129.7008
 Red. masses --      1.0883                 1.0999                 1.1005
 Frc consts  --      6.2477                 6.3354                 6.3510
 IR Inten    --     16.7957                33.5068                34.6487

                    100                    101                    102
                      A                      A                      A
 Frequencies --   3143.9617              3160.4188              3748.1466
 Red. masses --      1.0969                 1.0952                 1.0664
 Frc consts  --      6.3881                 6.4449                 8.8267
 IR Inten    --     24.0039                 5.1228                10.8715

 - Thermochemistry -
 -------------------
 Temperature   298.150 Kelvin.  Pressure   1.00000 Atm.
 Atom     1 has atomic number  6 and mass  12.00000

 Molecular mass:   194.16707 amu.
 Principal axes and moments of inertia in atomic units:
                           1         2         3
     Eigenvalues --  1917.148413914.759835372.27597
           X            0.99997   0.00682  -0.00212
           Y           -0.00682   0.99997   0.00196
           Z            0.00214  -0.00195   1.00000
 This molecule is an asymmetric top.
 Rotational symmetry number  1.
 Warning -- assumption of classical behavior for rotation
           may cause significant error
 Rotational temperatures (Kelvin)      0.04518     0.02212     0.01612
 Rotational constants (GHZ):           0.94137     0.46101     0.33594
 Zero-point vibrational energy     855217.4 (Joules/Mol)
                                  204.40186 (Kcal/Mol)
 Warning -- explicit consideration of  26 degrees of freedom as
           vibrations may cause significant error
 Vibrational temperatures:     63.54    92.29   126.77   139.83   149.51
          (Kelvin)            196.91   233.67   261.36   280.35   298.02
                              316.91   361.82   367.48   381.39   397.21
                              454.03   483.11   495.82   554.50   582.07
                              626.06   672.35   713.50   768.82   857.40
                              886.21  1011.63  1121.59  1200.04  1213.38
                             1285.61  1296.48  1342.49  1359.85  1378.48
                             1403.62  1421.88  1432.13  1443.35  1485.30
                             1507.36  1533.26  1545.62  1581.08  1587.44
                             1642.99  1658.74  1720.24  1732.11  1737.85
                             1760.65  1785.13  1804.36  1832.92  1868.63
                             1876.92  1895.06  1953.28  1963.34  1971.24
                             2009.75  2017.11  2058.09  2069.24  2077.36
                             2086.85  2123.25  2163.63  2171.38  2175.59
                             2183.17  2188.43  2190.61  2196.46  2200.05
                             2210.70  2225.19  2225.89  2465.60  2499.63
                             4248.25  4273.24  4315.41  4329.75  4352.72
                             4363.49  4373.12  4380.21  4382.57  4406.94
                             4409.98  4424.85  4449.28  4457.28  4467.36
                             4474.63  4491.06  4498.62  4502.94  4523.46
                             4547.14  5392.75

 Zero-point correction=                           0.325735 (Hartree/Particle)
 Thermal correction to Energy=                    0.342095
 Thermal correction to Enthalpy=                  0.343040
 Thermal correction to Gibbs Free Energy=         0.282827
 Sum of electronic and zero-point Energies=           -583.561592
 Sum of electronic and thermal Energies=              -583.545231
 Sum of electronic and thermal Enthalpies=            -583.544287
 Sum of electronic and thermal Free Energies=         -583.604500

                     E (Thermal)             CV                S
                      KCal/Mol        Cal/Mol-Kelvin    Cal/Mol-Kelvin
 Total                  214.668             61.365            126.729
 Electronic               0.000              0.000              0.000
 Translational            0.889              2.981             41.696
 Rotational               0.889              2.981             32.067
 Vibrational            212.891             55.404             52.966
 Vibration     1          0.595              1.980              5.063
 Vibration     2          0.597              1.971              4.325
 Vibration     3          0.601              1.958              3.702
 Vibration     4          0.603              1.951              3.510
 Vibration     5          0.605              1.946              3.380
 Vibration     6          0.614              1.917              2.847
 Vibration     7          0.623              1.889              2.522
 Vibration     8          0.630              1.865              2.311
 Vibration     9          0.636              1.847              2.181
 Vibration    10          0.641              1.830              2.069
 Vibration    11          0.647              1.810              1.957
 Vibration    12          0.663              1.760              1.720
 Vibration    13          0.666              1.754              1.693
 Vibration    14          0.671              1.737              1.628
 Vibration    15          0.678              1.718              1.558
 Vibration    16          0.703              1.644              1.333
 Vibration    17          0.717              1.604              1.232
 Vibration    18          0.723              1.586              1.191
 Vibration    19          0.754              1.501              1.018
 Vibration    20          0.770              1.460              0.946
 Vibration    21          0.796              1.394              0.842
 Vibration    22          0.825              1.323              0.745
 Vibration    23          0.851              1.259              0.668
 Vibration    24          0.889              1.174              0.578
 Vibration    25          0.954              1.040              0.457
 Vibration    26          0.976              0.998              0.423

                           ! Non-Optimized Parameters !
 Normal termination of Gaussian 16 at Thu Dec 10 09:38:50 2020.

 ----------------------------------------------------------------------
 # B3LYP/6-311++G(d,p) empiricaldispersion=gd3bj scf=xqc pop=npa geom=c
 heck
 ----------------------------------------------------------------------

 --------------------------------------
 CID_53915902_JID_4292_Energie_neutraal
 --------------------------------------
 Structure from the checkpoint file:  "JID_4292.chk"
 Charge =  0 Multiplicity = 1

 SCF Done:  E(RB3LYP) =  -584.056569603     A.U. after   14 cycles
 Normal termination of Gaussian 16 at Thu Dec 10 09:44:58 2020.

 ----------------------------------------------------------------------
 # B3LYP/6-311++G(d,p) empiricaldispersion=gd3bj scf=xqc pop=npa geom=c
 heck
 ----------------------------------------------------------------------

 ------------------------------------
 CID_53915902_JID_4292_Energie_kation
 ------------------------------------
 Structure from the checkpoint file:  "JID_4292.chk"
 Charge =  1 Multiplicity = 2

 SCF Done:  E(UB3LYP) =  -583.775026825     A.U. after   20 cycles
 Normal termination of Gaussian 16 at Thu Dec 10 09:57:13 2020.
 Gaussian 16:  ES64L-G16RevA.03 25-Dec-2016

 ----------------------------------------------------------------------
 # B3LYP/6-311++G(d,p) empiricaldispersion=gd3bj scf=xqc pop=npa geom=c
 heck
 ----------------------------------------------------------------------

 -----------------------------------
 CID_53915902_JID_4292_Energie_anion
 -----------------------------------
 Structure from the checkpoint file:  "JID_4292.chk"
 Charge = -1 Multiplicity = 2

                         Standard orientation:
 ---------------------------------------------------------------------
 Center     Atomic      Atomic             Coordinates (Angstroms)
 Number     Number       Type             X           Y           Z
 ---------------------------------------------------------------------
      1          6           0        1.400194    2.319840   -0.729757
      2          6           0        0.123186    1.688946   -0.271780
      3          6           0       -0.180270    0.377071   -0.194204
      4          6           0       -1.602246    0.173741    0.350523
      5          6           0       -2.227357    1.569787    0.128316
      6          6           0       -1.038261    2.542897    0.189511
      7          6           0       -2.408258   -1.009021   -0.233289
      8          6           0       -1.946098   -2.352245    0.353118
      9          6           0       -3.915344   -0.850035    0.017254
     10          6           0        0.687498   -0.741084   -0.593972
     11          6           0        1.908534   -1.053445   -0.127197
     12          6           0        2.704038   -2.203750   -0.683621
     13          6           0        2.569275   -0.304790    0.997643
     14          8           0        3.788746    0.263452    0.502284
     15          1           0        1.206413    3.027617   -1.547696
     16          1           0        1.860202    2.903008    0.080733
     17          1           0        2.135682    1.584336   -1.060274
     18          1           0       -1.523116   -0.006108    1.438178
     19          1           0       -2.662812    1.606290   -0.878566
     20          1           0       -3.022314    1.803064    0.842982
     21          1           0       -0.864451    2.905383    1.215801
     22          1           0       -1.179572    3.435717   -0.433057
     23          1           0       -2.246736   -1.021609   -1.322149
     24          1           0       -2.182357   -2.394885    1.424339
     25          1           0       -2.461173   -3.189220   -0.132813
     26          1           0       -0.869490   -2.506963    0.248668
     27          1           0       -4.326575    0.039627   -0.468835
     28          1           0       -4.462234   -1.721107   -0.361818
     29          1           0       -4.122526   -0.771507    1.092441
     30          1           0        0.273113   -1.396341   -1.362492
     31          1           0        3.664829   -1.848436   -1.073416
     32          1           0        2.935061   -2.938702    0.100302
     33          1           0        2.167318   -2.715426   -1.488319
     34          1           0        1.898505    0.468284    1.389490
     35          1           0        2.790212   -1.013296    1.815082
     36          1           0        4.232698    0.695193    1.247885
 ---------------------------------------------------------------------

 SCF Done:  E(UB3LYP) =  -584.044023600     A.U. after   33 cycles
 SCF Done:  E(UB3LYP) =  -584.044023600     a.u. after    1 cycles

 The electronic state is 2-A.
 Alpha  occ. eigenvalues --  -19.00734 -10.10169 -10.07738 -10.07342 -10.06966
 Alpha  occ. eigenvalues --  -10.06770 -10.06671 -10.06654 -10.06365 -10.06276
 Alpha  occ. eigenvalues --  -10.06023 -10.05905 -10.05610 -10.05575  -0.90594
 Alpha  occ. eigenvalues --   -0.75782  -0.70332  -0.69603  -0.63910  -0.62150
 Alpha  occ. eigenvalues --   -0.58570  -0.57632  -0.56743  -0.54752  -0.49641
 Alpha  occ. eigenvalues --   -0.45518  -0.44129  -0.40534  -0.38829  -0.38293
 Alpha  occ. eigenvalues --   -0.36930  -0.35366  -0.34731  -0.32525  -0.31626
 Alpha  occ. eigenvalues --   -0.31272  -0.30386  -0.30220  -0.29729  -0.28999
 Alpha  occ. eigenvalues --   -0.28494  -0.27890  -0.27060  -0.25615  -0.25344
 Alpha  occ. eigenvalues --   -0.24841  -0.23474  -0.22958  -0.22281  -0.21897
 Alpha  occ. eigenvalues --   -0.21342  -0.16591  -0.15429  -0.11604   0.04432
 Alpha virt. eigenvalues --    0.06163   0.07121   0.07792   0.08178   0.08787
 Alpha virt. eigenvalues --    0.09254   0.09515   0.09827   0.10275   0.10476
 Alpha virt. eigenvalues --    0.11342   0.11813   0.11999   0.12440   0.12562

  Beta  occ. eigenvalues --  -19.00679 -10.10139 -10.07733 -10.07333 -10.06934
  Beta  occ. eigenvalues --  -10.06760 -10.06661 -10.06636 -10.06363 -10.06254
  Beta  occ. eigenvalues --  -10.05980 -10.05891 -10.05588 -10.05562  -0.90466
  Beta  occ. eigenvalues --   -0.75751  -0.70264  -0.69558  -0.63878  -0.62095
  Beta  occ. eigenvalues --   -0.58526  -0.57564  -0.56674  -0.54704  -0.49601
  Beta  occ. eigenvalues --   -0.45475  -0.44060  -0.40388  -0.38796  -0.38234
  Beta  occ. eigenvalues --   -0.36893  -0.35332  -0.34700  -0.32497  -0.31587
  Beta  occ. eigenvalues --   -0.31235  -0.30334  -0.30188  -0.29702  -0.28970
  Beta  occ. eigenvalues --   -0.28460  -0.27862  -0.27007  -0.25590  -0.25303
  Beta  occ. eigenvalues --   -0.24814  -0.23421  -0.22927  -0.22245  -0.21868
  Beta  occ. eigenvalues --   -0.21300  -0.16530  -0.15253  -0.11484
  Beta virt. eigenvalues --    0.06417   0.07368   0.07466   0.07930   0.08735
  Beta virt. eigenvalues --    0.09029   0.09503   0.09760   0.10034   0.10618
  Beta virt. eigenvalues --    0.10999   0.11614   0.11901   0.12186   0.12497

 Mulliken charges and spin densities:
               1          2
     1  C    0.103744  -0.692287
     2  C   -1.557272   1.601921
     3  C    1.888550  -1.243692
     4  C    0.739665  -0.421213
     5  C   -0.939035   0.560897
     6  C    0.889219  -1.794386
     7  C   -1.377047   1.622364
     8  C    0.198054  -0.862128
     9  C    0.391184  -1.062629
    10  C   -1.557236   1.081633
    11  C   -0.385380   0.675724
    12  C   -0.111794  -0.467758
    13  C    1.478407  -2.077020
    14  O   -0.377513   0.126439
    15  H    0.082133   0.051946
    16  H   -0.068977   0.236392
    17  H    0.185872  -0.018764
    18  H    0.081122   0.145808
    19  H    0.114745   0.030597
    20  H    0.036241   0.109376
    21  H   -0.172628   0.342206
    22  H    0.140384   0.008090
    23  H    0.004373   0.148661
    24  H   -0.093343   0.230697
    25  H   -0.146706   0.283644
    26  H    0.261010  -0.119138
    27  H   -0.117367   0.245763
    28  H   -0.283986   0.431027
    29  H    0.043296   0.106137
    30  H    0.171180   0.057545
    31  H    0.156638   0.015964
    32  H   -0.014316   0.158967
    33  H   -0.070113   0.204170
    34  H    0.027746   0.134306
    35  H   -0.426232   0.593538
    36  H   -0.294618   0.555201
 Sum of Mulliken charges =  -1.00000   1.00000

 Dipole moment (field-independent basis, Debye):
    X=             -3.9209    Y=              0.7809    Z=             -3.6887  Tot=              5.4397
 Quadrupole moment (field-independent basis, Debye-Ang):
   XX=           -172.4112   YY=           -130.7648   ZZ=           -120.3928
   XY=            -10.1574   XZ=            -11.4132   YZ=             -3.4227

 Summary of Natural Population Analysis:

                                       Natural Population
                Natural  -----------------------------------------------
    Atom  No    Charge         Core      Valence    Rydberg      Total
 -----------------------------------------------------------------------
      C    1   -0.30285      0.99962     2.29676    0.00648     3.30285
      C    2    0.00568      0.99943     1.98614    0.00875     2.99432
      C    3   -0.02733      0.99939     2.01635    0.01159     3.02733
      C    4   -0.10726      0.99955     2.09712    0.01058     3.10726
      C    5   -0.18268      0.99963     2.17439    0.00865     3.18268
      C    6   -0.19868      0.99960     2.19099    0.00810     3.19868
      C    7   -0.11112      0.99960     2.10203    0.00948     3.11112
      C    8   -0.28538      0.99965     2.27993    0.00580     3.28538
      C    9   -0.28438      0.99965     2.27902    0.00571     3.28438
      C   10   -0.10293      0.99943     2.09401    0.00948     3.10293
      C   11   -0.00032      0.99949     1.99006    0.01077     3.00032
      C   12   -0.29577      0.99962     2.29122    0.00493     3.29577
      C   13   -0.02359      0.99952     2.01115    0.01291     3.02359
      O   14   -0.37462      0.99990     3.36786    0.00687     4.37462
      H   15    0.09675      0.00000     0.40238    0.00087     0.40325
      H   16    0.10615      0.00000     0.39277    0.00108     0.39385
      H   17    0.11631      0.00000     0.38241    0.00128     0.38369
      H   18    0.09473      0.00000     0.40362    0.00165     0.40527
      H   19    0.09320      0.00000     0.40560    0.00120     0.40680
      H   20    0.09844      0.00000     0.40073    0.00083     0.40156
      H   21    0.09961      0.00000     0.39908    0.00130     0.40039
      H   22    0.09562      0.00000     0.40343    0.00095     0.40438
      H   23    0.09106      0.00000     0.40729    0.00164     0.40894
      H   24    0.09541      0.00000     0.40364    0.00095     0.40459
      H   25    0.09659      0.00000     0.40255    0.00086     0.40341
      H   26    0.10720      0.00000     0.39181    0.00098     0.39280
      H   27    0.09852      0.00000     0.40060    0.00088     0.40148
      H   28    0.09902      0.00000     0.40008    0.00090     0.40098
      H   29    0.09620      0.00000     0.40289    0.00091     0.40380
      H   30    0.09576      0.00000     0.40273    0.00151     0.40424
      H   31    0.10895      0.00000     0.38973    0.00132     0.39105
      H   32    0.10099      0.00000     0.39777    0.00124     0.39901
      H   33    0.09702      0.00000     0.40213    0.00085     0.40298
      H   34    0.08649      0.00000     0.41140    0.00211     0.41351
      H   35    0.08176      0.00000     0.41564    0.00260     0.41824
      H   36    0.23541      0.00000     0.25090    0.01369     0.26459
 =======================================================================
   * Total *    0.00000     13.99408    39.84619    0.15973    54.00000

 Normal termination of Gaussian 16 at Thu Dec 10 10:17:23 2020.
