 Gaussian 16, Revision A.03,

 -----------------------------------------------------------
 # opt freq B3LYP/6-31G(d) empiricaldispersion=gd3bj scf=xqc
 -----------------------------------------------------------

 -------------------------------
 CID_115128060_JID_8735_neutraal
 -------------------------------
 Symbolic Z-matrix:
 Charge =  0 Multiplicity = 1

 SCF Done:  E(RB3LYP) =  -789.527711940     A.U. after   15 cycles
 SCF Done:  E(RB3LYP) =  -789.533465724     A.U. after   12 cycles
 SCF Done:  E(RB3LYP) =  -789.533322111     A.U. after   13 cycles
 SCF Done:  E(RB3LYP) =  -789.534941885     A.U. after   12 cycles
 SCF Done:  E(RB3LYP) =  -789.535489741     A.U. after   12 cycles
 SCF Done:  E(RB3LYP) =  -789.535759799     A.U. after   11 cycles
 SCF Done:  E(RB3LYP) =  -789.535610121     A.U. after   13 cycles
 SCF Done:  E(RB3LYP) =  -789.536022372     A.U. after   12 cycles
 SCF Done:  E(RB3LYP) =  -789.536077094     A.U. after   12 cycles
 SCF Done:  E(RB3LYP) =  -789.536169532     A.U. after   12 cycles
 SCF Done:  E(RB3LYP) =  -789.537021662     A.U. after   11 cycles
 SCF Done:  E(RB3LYP) =  -789.537027650     A.U. after    9 cycles
 SCF Done:  E(RB3LYP) =  -789.537028881     A.U. after    8 cycles
 SCF Done:  E(RB3LYP) =  -789.537029149     A.U. after    8 cycles
 SCF Done:  E(RB3LYP) =  -789.537029283     A.U. after    7 cycles
 Optimization completed.
    -- Stationary point found.
 Normal termination of Gaussian 16 at Fri Dec 11 21:41:17 2020.

 --------------------------------------------------------------------
 #N Geom=AllCheck Guess=TCheck SCRF=Check GenChk RB3LYP/6-31G(d) Freq
 --------------------------------------------------------------------

 Structure from the checkpoint file:  "JID_8735.chk"
 -------------------------------
 CID_115128060_JID_8735_neutraal
 -------------------------------
 Charge =  0 Multiplicity = 1

 SCF Done:  E(RB3LYP) =  -789.537029283     A.U. after    1 cycles

  Exact polarizability: 215.582 -10.290 164.953 -18.302  -7.586 115.930
 Approx polarizability: 277.433 -15.477 265.218 -34.376 -16.877 180.792

                      1                      2                      3
                      A                      A                      A
 Frequencies --     20.6420                32.7447                37.3353
 Red. masses --      4.6288                 5.0254                 4.6268
 Frc consts  --      0.0012                 0.0032                 0.0038
 IR Inten    --      0.0600                 0.3841                 0.6040

                      4                      5                      6
                      A                      A                      A
 Frequencies --     53.4157                83.2900               121.8843
 Red. masses --      5.9652                 4.0859                 3.9227
 Frc consts  --      0.0100                 0.0167                 0.0343
 IR Inten    --      0.3318                 0.6005                 0.0205

                      7                      8                      9
                      A                      A                      A
 Frequencies --    136.2145               177.0918               216.4072
 Red. masses --      3.0026                 2.5799                 2.3755
 Frc consts  --      0.0328                 0.0477                 0.0655
 IR Inten    --      0.8836                 0.1205                 3.4669

                     10                     11                     12
                      A                      A                      A
 Frequencies --    223.5296               229.0690               266.8130
 Red. masses --      2.0238                 1.9174                 1.7164
 Frc consts  --      0.0596                 0.0593                 0.0720
 IR Inten    --      0.7935                 0.3410                 0.4985

                     13                     14                     15
                      A                      A                      A
 Frequencies --    280.6402               298.6296               316.3619
 Red. masses --      2.6602                 1.4844                 1.6052
 Frc consts  --      0.1234                 0.0780                 0.0947
 IR Inten    --      0.9137                 0.0057                 0.1846

                     16                     17                     18
                      A                      A                      A
 Frequencies --    326.3456               358.3937               387.6270
 Red. masses --      2.7336                 2.7750                 3.1999
 Frc consts  --      0.1715                 0.2100                 0.2833
 IR Inten    --      0.9885                 2.9736                 1.3690

                     19                     20                     21
                      A                      A                      A
 Frequencies --    412.1811               420.5785               438.1801
 Red. masses --      3.3799                 2.8381                 2.9287
 Frc consts  --      0.3383                 0.2958                 0.3313
 IR Inten    --      8.9614                 0.6456                 1.0417

                     22                     23                     24
                      A                      A                      A
 Frequencies --    473.3131               496.7815               511.1647
 Red. masses --      3.1170                 2.8637                 3.8700
 Frc consts  --      0.4114                 0.4164                 0.5958
 IR Inten    --      3.1700                12.8888                 2.8911

                     25                     26                     27
                      A                      A                      A
 Frequencies --    577.3801               595.7561               611.6122
 Red. masses --      3.5748                 2.6405                 2.6093
 Frc consts  --      0.7021                 0.5522                 0.5751
 IR Inten    --      2.1304                 4.2426                18.8876

                     28                     29                     30
                      A                      A                      A
 Frequencies --    628.6937               637.6769               695.2191
 Red. masses --      1.3426                 2.5745                 1.9445
 Frc consts  --      0.3127                 0.6168                 0.5537
 IR Inten    --     81.6966                 2.8602                55.0199

                     31                     32                     33
                      A                      A                      A
 Frequencies --    719.4877               739.4768               758.2928
 Red. masses --      2.6559                 3.8024                 2.3640
 Frc consts  --      0.8101                 1.2251                 0.8009
 IR Inten    --     21.4013                 1.4913                22.9940

                     34                     35                     36
                      A                      A                      A
 Frequencies --    776.2307               783.1971               824.9260
 Red. masses --      2.9677                 4.0703                 1.4318
 Frc consts  --      1.0535                 1.4710                 0.5741
 IR Inten    --      0.8193                56.9016                12.6428

                     37                     38                     39
                      A                      A                      A
 Frequencies --    848.2548               875.5072               885.7899
 Red. masses --      2.0952                 2.4427                 1.6560
 Frc consts  --      0.8882                 1.1031                 0.7655
 IR Inten    --      6.9049                 0.8906                 0.6184

                     40                     41                     42
                      A                      A                      A
 Frequencies --    904.3688               906.7886               916.6764
 Red. masses --      1.8125                 1.9885                 1.9107
 Frc consts  --      0.8734                 0.9633                 0.9460
 IR Inten    --      8.7929                16.1146                 3.8008

                     43                     44                     45
                      A                      A                      A
 Frequencies --    926.7146               939.9198               947.7121
 Red. masses --      2.1046                 1.5759                 1.3611
 Frc consts  --      1.0649                 0.8203                 0.7203
 IR Inten    --      0.9371                 1.2490                 3.2057

                     46                     47                     48
                      A                      A                      A
 Frequencies --    967.8593              1013.3977              1020.9497
 Red. masses --      2.6460                 2.0409                 1.9483
 Frc consts  --      1.4604                 1.2349                 1.1965
 IR Inten    --      1.8007                 7.4435                 4.8332

                     49                     50                     51
                      A                      A                      A
 Frequencies --   1034.1598              1074.0562              1077.4575
 Red. masses --      1.3377                 1.7052                 1.8032
 Frc consts  --      0.8429                 1.1590                 1.2334
 IR Inten    --      0.8429                 3.1949                 1.2659

                     52                     53                     54
                      A                      A                      A
 Frequencies --   1120.0766              1125.1136              1157.9927
 Red. masses --      2.8741                 2.7946                 1.2826
 Frc consts  --      2.1245                 2.0843                 1.0134
 IR Inten    --      2.3870                30.5237                 1.6265

                     55                     56                     57
                      A                      A                      A
 Frequencies --   1170.1178              1172.2881              1180.9210
 Red. masses --      2.2139                 1.7982                 2.3969
 Frc consts  --      1.7859                 1.4560                 1.9694
 IR Inten    --     12.8310                33.1706               297.1746

                     58                     59                     60
                      A                      A                      A
 Frequencies --   1204.2719              1221.5696              1228.3393
 Red. masses --      1.2732                 1.6327                 1.7446
 Frc consts  --      1.0880                 1.4355                 1.5509
 IR Inten    --      0.2960                 8.0753                 2.9938

                     61                     62                     63
                      A                      A                      A
 Frequencies --   1234.8759              1250.5041              1271.5036
 Red. masses --      1.5153                 1.3592                 2.2396
 Frc consts  --      1.3614                 1.2523                 2.1333
 IR Inten    --     43.4219                 7.2070                 2.1874

                     64                     65                     66
                      A                      A                      A
 Frequencies --   1272.9238              1307.0859              1313.7282
 Red. masses --      2.6942                 1.3053                 1.6763
 Frc consts  --      2.5720                 1.3140                 1.7046
 IR Inten    --      1.5331                 1.4445                15.2800

                     67                     68                     69
                      A                      A                      A
 Frequencies --   1322.4698              1343.5678              1358.6606
 Red. masses --      2.0957                 1.3432                 1.3677
 Frc consts  --      2.1595                 1.4286                 1.4875
 IR Inten    --      0.2446                 1.4333                 0.1808

                     70                     71                     72
                      A                      A                      A
 Frequencies --   1372.2375              1381.8351              1388.6578
 Red. masses --      1.6195                 3.0838                 1.9736
 Frc consts  --      1.7967                 3.4694                 2.2424
 IR Inten    --     13.0571                32.6048                20.4670

                     73                     74                     75
                      A                      A                      A
 Frequencies --   1409.0177              1416.3071              1445.8303
 Red. masses --      1.2488                 1.2293                 1.2791
 Frc consts  --      1.4608                 1.4528                 1.5754
 IR Inten    --     21.4934                 8.7961                 7.0643

                     76                     77                     78
                      A                      A                      A
 Frequencies --   1479.4178              1509.0406              1510.7308
 Red. masses --      3.2726                 1.0769                 1.1347
 Frc consts  --      4.2201                 1.4449                 1.5258
 IR Inten    --      3.2367                 2.5505                 2.2001

                     79                     80                     81
                      A                      A                      A
 Frequencies --   1512.8517              1513.3402              1517.1676
 Red. masses --      1.1031                 1.0855                 1.0540
 Frc consts  --      1.4875                 1.4647                 1.4294
 IR Inten    --      1.6599                20.6548                 2.4312

                     82                     83                     84
                      A                      A                      A
 Frequencies --   1522.2687              1527.5141              1533.0539
 Red. masses --      1.0770                 1.1698                 1.1361
 Frc consts  --      1.4704                 1.6082                 1.5732
 IR Inten    --      0.7830                60.3323                 1.1187

                     85                     86                     87
                      A                      A                      A
 Frequencies --   1533.9909              1542.9587              1552.4234
 Red. masses --      1.0563                 2.3529                 1.1766
 Frc consts  --      1.4645                 3.3003                 1.6707
 IR Inten    --      5.9079                14.6561                21.3958

                     88                     89                     90
                      A                      A                      A
 Frequencies --   1637.7351              1676.1090              1833.3331
 Red. masses --      6.3776                 6.5768                 9.6725
 Frc consts  --     10.0785                10.8860                19.1545
 IR Inten    --      1.6062                 2.0898               243.7726

                     91                     92                     93
                      A                      A                      A
 Frequencies --   3024.6186              3025.0908              3029.7184
 Red. masses --      1.0708                 1.0690                 1.0678
 Frc consts  --      5.7719                 5.7638                 5.7751
 IR Inten    --     35.8518                30.4560                37.4226

                     94                     95                     96
                      A                      A                      A
 Frequencies --   3047.7204              3059.2757              3059.7995
 Red. masses --      1.0660                 1.0343                 1.0668
 Frc consts  --      5.8339                 5.7031                 5.8846
 IR Inten    --     34.1676                16.6069                22.6358

                     97                     98                     99
                      A                      A                      A
 Frequencies --   3066.7270              3085.0556              3086.0561
 Red. masses --      1.0377                 1.0940                 1.0939
 Frc consts  --      5.7500                 6.1346                 6.1381
 IR Inten    --     10.4541                50.4631                30.7300

                    100                    101                    102
                      A                      A                      A
 Frequencies --   3089.0484              3109.9603              3115.5336
 Red. masses --      1.0891                 1.0972                 1.1036
 Frc consts  --      6.1231                 6.2524                 6.3115
 IR Inten    --     49.9282                44.0158                49.3400

                    103                    104                    105
                      A                      A                      A
 Frequencies --   3132.5474              3136.8606              3137.4380
 Red. masses --      1.1017                 1.1029                 1.1018
 Frc consts  --      6.3698                 6.3942                 6.3900
 IR Inten    --      3.4474                35.1051                33.0163

                    106                    107                    108
                      A                      A                      A
 Frequencies --   3156.0765              3167.3452              3180.9160
 Red. masses --      1.1040                 1.0899                 1.0870
 Frc consts  --      6.4793                 6.4421                 6.4800
 IR Inten    --     23.2790                19.9342                12.4597

                    109                    110                    111
                      A                      A                      A
 Frequencies --   3198.3618              3532.7682              3685.0712
 Red. masses --      1.0940                 1.0736                 1.0640
 Frc consts  --      6.5935                 7.8948                 8.5131
 IR Inten    --     24.0500                20.2060                52.4941

 - Thermochemistry -
 -------------------
 Temperature   298.150 Kelvin.  Pressure   1.00000 Atm.
 Atom     1 has atomic number  6 and mass  12.00000

 Molecular mass:   247.15723 amu.
 Principal axes and moments of inertia in atomic units:
                           1         2         3
     Eigenvalues --  1920.026929216.08034**********
           X            0.99989  -0.01365  -0.00594
           Y            0.01358   0.99984  -0.01130
           Z            0.00609   0.01121   0.99992
 This molecule is an asymmetric top.
 Rotational symmetry number  1.
 Warning -- assumption of classical behavior for rotation
           may cause significant error
 Rotational temperatures (Kelvin)      0.04511     0.00940     0.00846
 Rotational constants (GHZ):           0.93996     0.19583     0.17619
 Zero-point vibrational energy     892438.2 (Joules/Mol)
                                  213.29785 (Kcal/Mol)
 Warning -- explicit consideration of  27 degrees of freedom as
           vibrations may cause significant error
 Vibrational temperatures:     29.70    47.11    53.72    76.85   119.84
          (Kelvin)            175.36   195.98   254.80   311.36   321.61
                              329.58   383.88   403.78   429.66   455.17
                              469.54   515.65   557.71   593.04   605.12
                              630.44   680.99   714.76   735.45   830.72
                              857.16   879.97   904.55   917.47  1000.27
                             1035.18  1063.94  1091.01  1116.82  1126.85
                             1186.88  1220.45  1259.66  1274.45  1301.18
                             1304.67  1318.89  1333.34  1352.33  1363.55
                             1392.53  1458.05  1468.92  1487.93  1545.33
                             1550.22  1611.54  1618.79  1666.09  1683.54
                             1686.66  1699.08  1732.68  1757.57  1767.31
                             1776.71  1799.20  1829.41  1831.45  1880.61
                             1890.16  1902.74  1933.09  1954.81  1974.34
                             1988.15  1997.97  2027.26  2037.75  2080.23
                             2128.55  2171.17  2173.60  2176.66  2177.36
                             2182.87  2190.21  2197.75  2205.72  2207.07
                             2219.97  2233.59  2356.34  2411.55  2637.76
                             4351.75  4352.43  4359.09  4384.99  4401.62
                             4402.37  4412.34  4438.71  4440.15  4444.45
                             4474.54  4482.56  4507.04  4513.24  4514.07
                             4540.89  4557.10  4576.63  4601.73  5082.87
                             5302.00

 Zero-point correction=                           0.339912 (Hartree/Particle)
 Thermal correction to Energy=                    0.357322
 Thermal correction to Enthalpy=                  0.358266
 Thermal correction to Gibbs Free Energy=         0.293298
 Sum of electronic and zero-point Energies=           -789.197118
 Sum of electronic and thermal Energies=              -789.179707
 Sum of electronic and thermal Enthalpies=            -789.178763
 Sum of electronic and thermal Free Energies=         -789.243731

                     E (Thermal)             CV                S
                      KCal/Mol        Cal/Mol-Kelvin    Cal/Mol-Kelvin
 Total                  224.223             68.068            136.736
 Electronic               0.000              0.000              0.000
 Translational            0.889              2.981             42.415
 Rotational               0.889              2.981             33.560
 Vibrational            222.446             62.107             60.761
 Vibration     1          0.593              1.986              6.571
 Vibration     2          0.594              1.983              5.656
 Vibration     3          0.594              1.982              5.396
 Vibration     4          0.596              1.976              4.687
 Vibration     5          0.600              1.961              3.812
 Vibration     6          0.609              1.931              3.070
 Vibration     7          0.614              1.917              2.856
 Vibration     8          0.628              1.871              2.359
 Vibration     9          0.645              1.816              1.989
 Vibration    10          0.649              1.805              1.930
 Vibration    11          0.652              1.797              1.886
 Vibration    12          0.672              1.734              1.617
 Vibration    13          0.680              1.709              1.530
 Vibration    14          0.692              1.676              1.425
 Vibration    15          0.703              1.642              1.329
 Vibration    16          0.710              1.623              1.278
 Vibration    17          0.733              1.558              1.129
 Vibration    18          0.756              1.497              1.009
 Vibration    19          0.776              1.444              0.919
 Vibration    20          0.783              1.426              0.890
 Vibration    21          0.798              1.387              0.832
 Vibration    22          0.830              1.309              0.728
 Vibration    23          0.852              1.257              0.666
 Vibration    24          0.866              1.225              0.631
 Vibration    25          0.934              1.080              0.490
 Vibration    26          0.954              1.041              0.457
 Vibration    27          0.971              1.007              0.430

 Optimization completed.
    -- Stationary point found.
 Normal termination of Gaussian 16 at Fri Dec 11 21:58:31 2020.

 ----------------------------------------------------------------------
 # B3LYP/6-311++G(d,p) empiricaldispersion=gd3bj scf=xqc pop=npa geom=c
 heck
 ----------------------------------------------------------------------

 ---------------------------------------
 CID_115128060_JID_8735_Energie_neutraal
 ---------------------------------------
 Structure from the checkpoint file:  "JID_8735.chk"
 Charge =  0 Multiplicity = 1

 SCF Done:  E(RB3LYP) =  -789.761166195     A.U. after   15 cycles
 Normal termination of Gaussian 16 at Fri Dec 11 22:05:26 2020.

 ----------------------------------------------------------------------
 # B3LYP/6-311++G(d,p) empiricaldispersion=gd3bj scf=xqc pop=npa geom=c
 heck
 ----------------------------------------------------------------------

 -------------------------------------
 CID_115128060_JID_8735_Energie_kation
 -------------------------------------
 Structure from the checkpoint file:  "JID_8735.chk"
 Charge =  1 Multiplicity = 2

 SCF Done:  E(UB3LYP) =  -789.482018162     A.U. after   27 cycles
 Normal termination of Gaussian 16 at Fri Dec 11 22:23:20 2020.
 Gaussian 16:  ES64L-G16RevA.03 25-Dec-2016

 ----------------------------------------------------------------------
 # B3LYP/6-311++G(d,p) empiricaldispersion=gd3bj scf=xqc pop=npa geom=c
 heck
 ----------------------------------------------------------------------

 ------------------------------------
 CID_115128060_JID_8735_Energie_anion
 ------------------------------------
 Structure from the checkpoint file:  "JID_8735.chk"
 Charge = -1 Multiplicity = 2

                         Standard orientation:
 ---------------------------------------------------------------------
 Center     Atomic      Atomic             Coordinates (Angstroms)
 Number     Number       Type             X           Y           Z
 ---------------------------------------------------------------------
      1          6           0       -4.209584    0.892396   -0.975413
      2          6           0       -3.083020    0.213124   -0.175974
      3          6           0       -3.265699    0.521071    1.336503
      4          6           0       -3.170600   -1.309920   -0.293889
      5          8           0       -2.219987   -2.057022   -0.387002
      6          8           0       -4.440872   -1.769999   -0.214066
      7          7           0       -1.790399    0.581647   -0.749678
      8          6           0       -1.204992    1.871967   -0.423864
      9          6           0       -0.258956    1.904637    0.805657
     10          6           0        0.908269    0.960708    0.644025
     11          6           0        2.085592    1.389502    0.012135
     12          6           0        3.134434    0.499234   -0.187369
     13          6           0        3.025523   -0.834969    0.229463
     14          6           0        4.283630   -1.601408   -0.116917
     15          6           0        5.316009   -0.475515   -0.373697
     16          6           0        4.475969    0.736672   -0.846998
     17          6           0        1.862295   -1.277026    0.850545
     18          6           0        0.813469   -0.376492    1.057422
     19          1           0       -5.196915    0.614285   -0.598706
     20          1           0       -4.136331    0.621374   -2.031920
     21          1           0       -4.104841    1.979696   -0.897492
     22          1           0       -4.250484    0.190996    1.681121
     23          1           0       -2.500745    0.018354    1.936190
     24          1           0       -3.189827    1.598736    1.510084
     25          1           0       -4.373044   -2.742822   -0.245210
     26          1           0       -1.123449   -0.176165   -0.633285
     27          1           0       -0.628242    2.215305   -1.293517
     28          1           0       -2.008517    2.603730   -0.282430
     29          1           0        0.107440    2.932704    0.923837
     30          1           0       -0.819172    1.657703    1.712547
     31          1           0        2.173132    2.425337   -0.310821
     32          1           0        4.126015   -2.200892   -1.025586
     33          1           0        4.599469   -2.296004    0.669364
     34          1           0        5.811899   -0.221374    0.570476
     35          1           0        6.092945   -0.762455   -1.088591
     36          1           0        4.927336    1.698277   -0.578512
     37          1           0        4.366483    0.731714   -1.941481
     38          1           0        1.764546   -2.308370    1.180018
     39          1           0       -0.092072   -0.719372    1.550428
 ---------------------------------------------------------------------

 SCF Done:  E(UB3LYP) =  -789.747981220     A.U. after   33 cycles
 SCF Done:  E(UB3LYP) =  -789.747981220     a.u. after    1 cycles

 The electronic state is 2-A.
 Alpha  occ. eigenvalues --  -19.07653 -19.02468 -14.19543 -10.21261 -10.13212
 Alpha  occ. eigenvalues --  -10.10053 -10.08931 -10.08839 -10.08791 -10.08685
 Alpha  occ. eigenvalues --  -10.08506 -10.08296 -10.08175 -10.07889 -10.07768
 Alpha  occ. eigenvalues --  -10.07598 -10.07371 -10.06676  -1.01937  -0.92997
 Alpha  occ. eigenvalues --   -0.81883  -0.78401  -0.73238  -0.69821  -0.67153
 Alpha  occ. eigenvalues --   -0.65142  -0.61660  -0.60288  -0.59823  -0.56683
 Alpha  occ. eigenvalues --   -0.53623  -0.51534  -0.49587  -0.47470  -0.46194
 Alpha  occ. eigenvalues --   -0.42787  -0.41267  -0.39902  -0.39429  -0.38037
 Alpha  occ. eigenvalues --   -0.37091  -0.36477  -0.35549  -0.34435  -0.33750
 Alpha  occ. eigenvalues --   -0.32982  -0.32421  -0.32262  -0.32062  -0.30750
 Alpha  occ. eigenvalues --   -0.29572  -0.29239  -0.29090  -0.28175  -0.27033
 Alpha  occ. eigenvalues --   -0.26761  -0.26515  -0.26014  -0.25383  -0.24127
 Alpha  occ. eigenvalues --   -0.23725  -0.23593  -0.23357  -0.19115  -0.15960
 Alpha  occ. eigenvalues --   -0.14526  -0.12475   0.04117
 Alpha virt. eigenvalues --    0.05427   0.05999   0.06589   0.07096   0.07784
 Alpha virt. eigenvalues --    0.07961   0.08441   0.08602   0.08743   0.09021
 Alpha virt. eigenvalues --    0.09920   0.10124   0.10238   0.10272   0.11044

  Beta  occ. eigenvalues --  -19.07599 -19.02452 -14.19542 -10.21260 -10.13203
  Beta  occ. eigenvalues --  -10.10036 -10.08925 -10.08826 -10.08776 -10.08676
  Beta  occ. eigenvalues --  -10.08509 -10.08280 -10.08173 -10.07875 -10.07759
  Beta  occ. eigenvalues --  -10.07585 -10.07341 -10.06651  -1.01873  -0.92940
  Beta  occ. eigenvalues --   -0.81869  -0.78380  -0.73214  -0.69794  -0.67129
  Beta  occ. eigenvalues --   -0.65118  -0.61628  -0.60245  -0.59787  -0.56609
  Beta  occ. eigenvalues --   -0.53570  -0.51498  -0.49548  -0.47420  -0.46153
  Beta  occ. eigenvalues --   -0.42747  -0.41237  -0.39866  -0.39407  -0.38003
  Beta  occ. eigenvalues --   -0.37061  -0.36443  -0.35522  -0.34409  -0.33719
  Beta  occ. eigenvalues --   -0.32948  -0.32389  -0.32235  -0.32038  -0.30713
  Beta  occ. eigenvalues --   -0.29543  -0.29213  -0.29057  -0.28143  -0.27008
  Beta  occ. eigenvalues --   -0.26733  -0.26490  -0.25989  -0.25357  -0.24098
  Beta  occ. eigenvalues --   -0.23701  -0.23572  -0.23320  -0.19049  -0.15924
  Beta  occ. eigenvalues --   -0.14472  -0.12462
  Beta virt. eigenvalues --    0.05748   0.06371   0.06663   0.07086   0.07577
  Beta virt. eigenvalues --    0.08022   0.08170   0.08678   0.08784   0.08976
  Beta virt. eigenvalues --    0.09269   0.10112   0.10253   0.10308   0.10615

 Mulliken charges and spin densities:
               1          2
     1  C    0.324305  -0.774498
     2  C   -0.734399   0.430618
     3  C    0.647252  -1.098698
     4  C    0.153201  -0.151391
     5  O   -0.284910   0.001278
     6  O   -0.200119   0.078281
     7  N   -0.029772  -0.004713
     8  C    0.533740  -0.860089
     9  C   -0.117156  -0.341325
    10  C    0.898158   0.375487
    11  C   -0.865576   0.610782
    12  C    0.570685  -0.525990
    13  C    0.732495  -0.865700
    14  C    0.330181  -0.903773
    15  C   -0.262656  -0.152299
    16  C   -0.165776  -0.210601
    17  C   -0.724448   0.387742
    18  C   -0.776620   0.413935
    19  H    0.034212   0.125850
    20  H    0.025411   0.163131
    21  H   -0.169044   0.289762
    22  H   -0.112249   0.300734
    23  H   -0.053545   0.233810
    24  H   -0.200496   0.358338
    25  H   -0.495529   0.802131
    26  H    0.331874  -0.084208
    27  H    0.067219   0.124342
    28  H    0.029439   0.107559
    29  H   -0.431380   0.624868
    30  H    0.071852   0.086414
    31  H   -0.152738   0.290226
    32  H    0.126340   0.028161
    33  H    0.065141   0.080008
    34  H    0.019524   0.125640
    35  H   -0.050257   0.198232
    36  H   -0.102542   0.254424
    37  H    0.067753   0.095217
    38  H   -0.030939   0.207445
    39  H   -0.068629   0.178874
 Sum of Mulliken charges =  -1.00000   1.00000

 Dipole moment (field-independent basis, Debye):
    X=              5.1124    Y=              0.5483    Z=             -0.5085  Tot=              5.1668
 Quadrupole moment (field-independent basis, Debye-Ang):
   XX=           -211.1838   YY=           -161.3250   ZZ=           -139.7684
   XY=            -17.0354   XZ=             -0.1543   YZ=             -2.6084

 Summary of Natural Population Analysis:

                                       Natural Population
                Natural  -----------------------------------------------
    Atom  No    Charge         Core      Valence    Rydberg      Total
 -----------------------------------------------------------------------
      C    1   -0.28457      0.99962     2.27841    0.00653     3.28457
      C    2    0.02181      0.99954     1.96351    0.01514     2.97819
      C    3   -0.29329      0.99962     2.28657    0.00709     3.29329
      C    4    0.41475      0.99963     1.55892    0.02670     2.58525
      O    5   -0.30884      0.99987     3.30276    0.00621     4.30884
      O    6   -0.34313      0.99987     3.33571    0.00755     4.34313
      N    7   -0.35346      0.99971     2.84200    0.01176     3.85346
      C    8   -0.08268      0.99962     2.07129    0.01178     3.08268
      C    9   -0.20598      0.99959     2.19731    0.00908     3.20598
      C   10   -0.01339      0.99951     2.00406    0.00982     3.01339
      C   11   -0.09762      0.99946     2.08889    0.00927     3.09762
      C   12   -0.01293      0.99947     2.00378    0.00967     3.01293
      C   13   -0.01685      0.99946     2.00900    0.00839     3.01685
      C   14   -0.19576      0.99961     2.18938    0.00677     3.19576
      C   15   -0.18345      0.99965     2.17699    0.00680     3.18345
      C   16   -0.19791      0.99961     2.18956    0.00874     3.19791
      C   17   -0.09425      0.99951     2.08643    0.00831     3.09425
      C   18   -0.10409      0.99951     2.09518    0.00939     3.10409
      H   19    0.10575      0.00000     0.39298    0.00127     0.39425
      H   20    0.10478      0.00000     0.39395    0.00127     0.39522
      H   21    0.09926      0.00000     0.39962    0.00112     0.40074
      H   22    0.10806      0.00000     0.39069    0.00125     0.39194
      H   23    0.10177      0.00000     0.39677    0.00146     0.39823
      H   24    0.10250      0.00000     0.39629    0.00121     0.39750
      H   25    0.24518      0.00000     0.23651    0.01831     0.25482
      H   26    0.19348      0.00000     0.30299    0.00353     0.30652
      H   27    0.09211      0.00000     0.40667    0.00121     0.40789
      H   28    0.09441      0.00000     0.40435    0.00123     0.40559
      H   29    0.10249      0.00000     0.39612    0.00139     0.39751
      H   30    0.10158      0.00000     0.39683    0.00159     0.39842
      H   31    0.09955      0.00000     0.39896    0.00150     0.40045
      H   32    0.09931      0.00000     0.39938    0.00130     0.40069
      H   33    0.10164      0.00000     0.39703    0.00134     0.39836
      H   34    0.09548      0.00000     0.40312    0.00140     0.40452
      H   35    0.09673      0.00000     0.40210    0.00117     0.40327
      H   36    0.10391      0.00000     0.39493    0.00116     0.39609
      H   37    0.10002      0.00000     0.39892    0.00106     0.39998
      H   38    0.10029      0.00000     0.39857    0.00114     0.39971
      H   39    0.10332      0.00000     0.39516    0.00152     0.39668
 =======================================================================
   * Total *   -0.00000     17.99288    48.78169    0.22543    67.00000

 Normal termination of Gaussian 16 at Fri Dec 11 22:45:32 2020.
