 Gaussian 16, Revision A.03,

 -----------------------------------------------------------
 # opt freq B3LYP/6-31G(d) empiricaldispersion=gd3bj scf=xqc
 -----------------------------------------------------------

 -------------------------------
 CID_112346327_JID_7853_neutraal
 -------------------------------
 Symbolic Z-matrix:
 Charge =  0 Multiplicity = 1

 SCF Done:  E(RB3LYP) =  -797.099527405     A.U. after   16 cycles
 SCF Done:  E(RB3LYP) =  -797.105841121     A.U. after   13 cycles
 SCF Done:  E(RB3LYP) =  -797.106861546     A.U. after   12 cycles
 SCF Done:  E(RB3LYP) =  -797.106922458     A.U. after   12 cycles
 SCF Done:  E(RB3LYP) =  -797.107203360     A.U. after   11 cycles
 SCF Done:  E(RB3LYP) =  -797.107237860     A.U. after   11 cycles
 SCF Done:  E(RB3LYP) =  -797.107252676     A.U. after   11 cycles
 SCF Done:  E(RB3LYP) =  -797.107258464     A.U. after    9 cycles
 SCF Done:  E(RB3LYP) =  -797.107263558     A.U. after    9 cycles
 SCF Done:  E(RB3LYP) =  -797.107264493     A.U. after    8 cycles
 SCF Done:  E(RB3LYP) =  -797.107269407     A.U. after    7 cycles
 SCF Done:  E(RB3LYP) =  -797.107269460     A.U. after    7 cycles
 SCF Done:  E(RB3LYP) =  -797.107269514     A.U. after    7 cycles
 SCF Done:  E(RB3LYP) =  -797.107269565     A.U. after    7 cycles
 SCF Done:  E(RB3LYP) =  -797.107269614     A.U. after    7 cycles
 SCF Done:  E(RB3LYP) =  -797.107269633     A.U. after    6 cycles
 Optimization completed.
    -- Stationary point found.
 Normal termination of Gaussian 16 at Fri Dec 11 13:31:59 2020.

 --------------------------------------------------------------------
 #N Geom=AllCheck Guess=TCheck SCRF=Check GenChk RB3LYP/6-31G(d) Freq
 --------------------------------------------------------------------

 Structure from the checkpoint file:  "JID_7853.chk"
 -------------------------------
 CID_112346327_JID_7853_neutraal
 -------------------------------
 Charge =  0 Multiplicity = 1

 SCF Done:  E(RB3LYP) =  -797.107269633     A.U. after    1 cycles

  Exact polarizability: 194.067 -10.034 162.479   6.978   0.168  87.179
 Approx polarizability: 282.978 -23.398 276.658  18.025   3.494 135.814

                      1                      2                      3
                      A                      A                      A
 Frequencies --     25.8120                36.5537                49.0290
 Red. masses --      4.0030                 1.1103                 4.9491
 Frc consts  --      0.0016                 0.0009                 0.0070
 IR Inten    --      0.2969                 0.3288                 2.1322

                      4                      5                      6
                      A                      A                      A
 Frequencies --     72.6804                81.9723                86.9316
 Red. masses --      1.7218                 2.3366                 3.2216
 Frc consts  --      0.0054                 0.0093                 0.0143
 IR Inten    --      0.2391                 2.7411                 2.1741

                      7                      8                      9
                      A                      A                      A
 Frequencies --    111.9667               136.0585               140.9492
 Red. masses --      2.7386                 3.4440                 5.3521
 Frc consts  --      0.0202                 0.0376                 0.0626
 IR Inten    --      3.0801                 3.8719                 4.0944

                     10                     11                     12
                      A                      A                      A
 Frequencies --    163.0537               216.9125               232.5582
 Red. masses --      4.0274                 3.3904                 4.0846
 Frc consts  --      0.0631                 0.0940                 0.1302
 IR Inten    --      4.5661                 0.7253                 1.7175

                     13                     14                     15
                      A                      A                      A
 Frequencies --    257.3105               306.8794               331.5125
 Red. masses --      5.0435                 3.5912                 2.8681
 Frc consts  --      0.1967                 0.1993                 0.1857
 IR Inten    --      1.5370                19.8194                 3.5578

                     16                     17                     18
                      A                      A                      A
 Frequencies --    353.6828               375.2210               390.0247
 Red. masses --      3.1462                 1.3156                 4.3744
 Frc consts  --      0.2319                 0.1091                 0.3921
 IR Inten    --     14.3580               158.6526                 1.1115

                     19                     20                     21
                      A                      A                      A
 Frequencies --    451.7689               494.6317               506.0693
 Red. masses --      4.9537                 4.1556                 3.0782
 Frc consts  --      0.5957                 0.5990                 0.4645
 IR Inten    --      8.6775                 4.6406                22.4276

                     22                     23                     24
                      A                      A                      A
 Frequencies --    534.6795               553.3984               622.6788
 Red. masses --      4.6166                 4.7344                 3.3385
 Frc consts  --      0.7776                 0.8543                 0.7627
 IR Inten    --      3.3167                 3.6559                14.8763

                     25                     26                     27
                      A                      A                      A
 Frequencies --    633.3068               648.3555               673.3060
 Red. masses --      4.5492                 4.8829                 3.3539
 Frc consts  --      1.0750                 1.2093                 0.8958
 IR Inten    --      1.4753                 1.7821                11.6610

                     28                     29                     30
                      A                      A                      A
 Frequencies --    723.3221               744.6493               779.1476
 Red. masses --      2.0013                 6.2408                 3.5772
 Frc consts  --      0.6169                 2.0389                 1.2795
 IR Inten    --     24.4468                28.1081                39.1513

                     31                     32                     33
                      A                      A                      A
 Frequencies --    804.6611               851.1727               866.2447
 Red. masses --      3.8269                 2.1167                 4.2403
 Frc consts  --      1.4599                 0.9035                 1.8747
 IR Inten    --      4.2584                44.4571                13.9972

                     34                     35                     36
                      A                      A                      A
 Frequencies --    870.3616               888.1152               913.6478
 Red. masses --      1.4899                 1.5681                 2.4752
 Frc consts  --      0.6650                 0.7287                 1.2174
 IR Inten    --     12.7595                 7.5745                18.6390

                     37                     38                     39
                      A                      A                      A
 Frequencies --    950.1837               999.3471              1009.4263
 Red. masses --      3.4991                 4.0059                 1.7061
 Frc consts  --      1.8613                 2.3571                 1.0242
 IR Inten    --      8.6657                35.3143                 8.5359

                     40                     41                     42
                      A                      A                      A
 Frequencies --   1049.3171              1063.8565              1069.3875
 Red. masses --      1.8478                 1.9961                 1.5464
 Frc consts  --      1.1987                 1.3311                 1.0419
 IR Inten    --      9.5646                60.3856                 3.7771

                     43                     44                     45
                      A                      A                      A
 Frequencies --   1110.3017              1148.9366              1165.8619
 Red. masses --      3.1658                 2.9590                 1.2918
 Frc consts  --      2.2994                 2.3014                 1.0345
 IR Inten    --    108.6521                11.8511                 0.0354

                     46                     47                     48
                      A                      A                      A
 Frequencies --   1177.9473              1220.6613              1224.4578
 Red. masses --      2.4765                 1.3208                 1.3131
 Frc consts  --      2.0246                 1.1595                 1.1600
 IR Inten    --      6.6233                54.0416                12.4034

                     49                     50                     51
                      A                      A                      A
 Frequencies --   1253.4261              1283.3621              1295.0669
 Red. masses --      2.8625                 1.8183                 2.2005
 Frc consts  --      2.6497                 1.7645                 2.1745
 IR Inten    --     15.9021                97.0703                 8.2446

                     52                     53                     54
                      A                      A                      A
 Frequencies --   1329.9956              1342.5982              1380.3621
 Red. masses --      4.3706                 3.8225                 2.4947
 Frc consts  --      4.5550                 4.0597                 2.8006
 IR Inten    --     16.6828                38.3957               124.8197

                     55                     56                     57
                      A                      A                      A
 Frequencies --   1400.4878              1408.9128              1424.6719
 Red. masses --      2.8936                 1.2520                 1.6375
 Frc consts  --      3.3439                 1.4643                 1.9582
 IR Inten    --     21.6463                36.0083                20.9559

                     58                     59                     60
                      A                      A                      A
 Frequencies --   1434.5668              1435.6087              1465.6843
 Red. masses --      1.3193                 1.4943                 1.4292
 Frc consts  --      1.5997                 1.8145                 1.8089
 IR Inten    --     44.9857                13.4885                29.8799

                     61                     62                     63
                      A                      A                      A
 Frequencies --   1483.8350              1488.1636              1495.7789
 Red. masses --      2.5800                 2.0830                 2.4614
 Frc consts  --      3.3469                 2.7180                 3.2447
 IR Inten    --     22.6842                 9.2051               141.0747

                     64                     65                     66
                      A                      A                      A
 Frequencies --   1504.4064              1510.8308              1512.8892
 Red. masses --      1.3453                 1.1628                 1.0472
 Frc consts  --      1.7939                 1.5638                 1.4122
 IR Inten    --     10.8284                26.5984                 0.8116

                     67                     68                     69
                      A                      A                      A
 Frequencies --   1513.6287              1526.8833              1536.1873
 Red. masses --      1.0498                 1.1002                 1.3231
 Frc consts  --      1.4171                 1.5112                 1.8396
 IR Inten    --     12.2537                 4.5364                 4.7835

                     70                     71                     72
                      A                      A                      A
 Frequencies --   1566.8746              1633.0646              1637.5807
 Red. masses --      2.5549                 6.7194                 9.3207
 Frc consts  --      3.6956                10.5581                14.7266
 IR Inten    --      1.0913                31.6088                90.5970

                     73                     74                     75
                      A                      A                      A
 Frequencies --   1768.8332              3011.3907              3049.1528
 Red. masses --      8.3397                 1.0700                 1.0395
 Frc consts  --     15.3735                 5.7169                 5.6944
 IR Inten    --    270.8561                52.6697                18.3537

                     76                     77                     78
                      A                      A                      A
 Frequencies --   3062.0944              3071.4120              3101.1731
 Red. masses --      1.0676                 1.0329                 1.1001
 Frc consts  --      5.8979                 5.7411                 6.2333
 IR Inten    --     30.2457                57.5038                15.3610

                     79                     80                     81
                      A                      A                      A
 Frequencies --   3109.8475              3136.4146              3141.4308
 Red. masses --      1.0950                 1.1065                 1.0977
 Frc consts  --      6.2393                 6.4131                 6.3825
 IR Inten    --     48.8523                16.9685                13.4892

                     82                     83                     84
                      A                      A                      A
 Frequencies --   3160.3788              3178.2832              3218.0362
 Red. masses --      1.0998                 1.1034                 1.0897
 Frc consts  --      6.4722                 6.5670                 6.6487
 IR Inten    --      8.2030                 2.1359                 5.8943

                     85                     86                     87
                      A                      A                      A
 Frequencies --   3286.2167              3574.6129              3733.9605
 Red. masses --      1.0967                 1.0751                 1.0657
 Frc consts  --      6.9780                 8.0937                 8.7546
 IR Inten    --      1.4686                28.6496                14.1890

 - Thermochemistry -
 -------------------
 Temperature   298.150 Kelvin.  Pressure   1.00000 Atm.
 Atom     1 has atomic number  6 and mass  12.00000

 Molecular mass:   234.11168 amu.
 Principal axes and moments of inertia in atomic units:
                           1         2         3
     Eigenvalues --  2193.879886281.217987955.03955
           X            1.00000   0.00059  -0.00200
           Y           -0.00062   0.99993  -0.01144
           Z            0.00199   0.01145   0.99993
 This molecule is an asymmetric top.
 Rotational symmetry number  1.
 Warning -- assumption of classical behavior for rotation
           may cause significant error
 Rotational temperatures (Kelvin)      0.03948     0.01379     0.01089
 Rotational constants (GHZ):           0.82263     0.28732     0.22687
 Zero-point vibrational energy     661453.7 (Joules/Mol)
                                  158.09122 (Kcal/Mol)
 Warning -- explicit consideration of  23 degrees of freedom as
           vibrations may cause significant error
 Vibrational temperatures:     37.14    52.59    70.54   104.57   117.94
          (Kelvin)            125.08   161.10   195.76   202.79   234.60
                              312.09   334.60   370.21   441.53   476.97
                              508.87   539.86   561.16   649.99   711.66
                              728.12   769.28   796.22   895.90   911.19
                              932.84   968.74  1040.70  1071.38  1121.02
                             1157.73  1224.65  1246.33  1252.26  1277.80
                             1314.54  1367.10  1437.84  1452.34  1509.73
                             1530.65  1538.61  1597.48  1653.06  1677.42
                             1694.80  1756.26  1761.72  1803.40  1846.47
                             1863.31  1913.57  1931.70  1986.03  2014.99
                             2027.11  2049.79  2064.02  2065.52  2108.79
                             2134.91  2141.14  2152.09  2164.51  2173.75
                             2176.71  2177.77  2196.84  2210.23  2254.38
                             2349.62  2356.11  2544.96  4332.72  4387.05
                             4405.67  4419.08  4461.90  4474.38  4512.60
                             4519.82  4547.08  4572.84  4630.04  4728.13
                             5143.07  5372.34

 Zero-point correction=                           0.251934 (Hartree/Particle)
 Thermal correction to Energy=                    0.268436
 Thermal correction to Enthalpy=                  0.269380
 Thermal correction to Gibbs Free Energy=         0.205809
 Sum of electronic and zero-point Energies=           -796.855335
 Sum of electronic and thermal Energies=              -796.838834
 Sum of electronic and thermal Enthalpies=            -796.837890
 Sum of electronic and thermal Free Energies=         -796.901461

                     E (Thermal)             CV                S
                      KCal/Mol        Cal/Mol-Kelvin    Cal/Mol-Kelvin
 Total                  168.446             59.837            133.796
 Electronic               0.000              0.000              0.000
 Translational            0.889              2.981             42.254
 Rotational               0.889              2.981             33.061
 Vibrational            166.669             53.876             58.482
 Vibration     1          0.593              1.985              6.128
 Vibration     2          0.594              1.982              5.438
 Vibration     3          0.595              1.978              4.856
 Vibration     4          0.599              1.967              4.079
 Vibration     5          0.600              1.961              3.843
 Vibration     6          0.601              1.958              3.728
 Vibration     7          0.607              1.940              3.235
 Vibration     8          0.614              1.917              2.859
 Vibration     9          0.615              1.912              2.791
 Vibration    10          0.623              1.888              2.514
 Vibration    11          0.646              1.815              1.985
 Vibration    12          0.653              1.791              1.859
 Vibration    13          0.667              1.750              1.680
 Vibration    14          0.697              1.661              1.379
 Vibration    15          0.714              1.613              1.253
 Vibration    16          0.730              1.568              1.150
 Vibration    17          0.746              1.523              1.058
 Vibration    18          0.758              1.491              1.000
 Vibration    19          0.810              1.357              0.790
 Vibration    20          0.850              1.262              0.672
 Vibration    21          0.861              1.237              0.643
 Vibration    22          0.890              1.173              0.577
 Vibration    23          0.909              1.132              0.537

 Optimization completed.
    -- Stationary point found.
 Normal termination of Gaussian 16 at Fri Dec 11 13:41:47 2020.

 ----------------------------------------------------------------------
 # B3LYP/6-311++G(d,p) empiricaldispersion=gd3bj scf=xqc pop=npa geom=c
 heck
 ----------------------------------------------------------------------

 ---------------------------------------
 CID_112346327_JID_7853_Energie_neutraal
 ---------------------------------------
 Structure from the checkpoint file:  "JID_7853.chk"
 Charge =  0 Multiplicity = 1

 SCF Done:  E(RB3LYP) =  -797.335294913     A.U. after   16 cycles
 Normal termination of Gaussian 16 at Fri Dec 11 13:45:54 2020.

 ----------------------------------------------------------------------
 # B3LYP/6-311++G(d,p) empiricaldispersion=gd3bj scf=xqc pop=npa geom=c
 heck
 ----------------------------------------------------------------------

 -------------------------------------
 CID_112346327_JID_7853_Energie_kation
 -------------------------------------
 Structure from the checkpoint file:  "JID_7853.chk"
 Charge =  1 Multiplicity = 2

 SCF Done:  E(UB3LYP) =  -797.025583291     A.U. after   32 cycles
 Normal termination of Gaussian 16 at Fri Dec 11 13:57:02 2020.
 Gaussian 16:  ES64L-G16RevA.03 25-Dec-2016

 ----------------------------------------------------------------------
 # B3LYP/6-311++G(d,p) empiricaldispersion=gd3bj scf=xqc pop=npa geom=c
 heck
 ----------------------------------------------------------------------

 ------------------------------------
 CID_112346327_JID_7853_Energie_anion
 ------------------------------------
 Structure from the checkpoint file:  "JID_7853.chk"
 Charge = -1 Multiplicity = 2

                         Standard orientation:
 ---------------------------------------------------------------------
 Center     Atomic      Atomic             Coordinates (Angstroms)
 Number     Number       Type             X           Y           Z
 ---------------------------------------------------------------------
      1          6           0        0.411138    3.425628   -0.510381
      2          6           0        0.670792    1.951362   -0.338097
      3          6           0       -0.397883    1.024928   -0.471333
      4          6           0       -0.188955   -0.342346   -0.336508
      5          6           0        1.131716   -0.756968   -0.086993
      6          6           0        1.852455   -1.968992    0.106306
      7          7           0        3.133847   -1.725999    0.339462
      8          7           0        3.290892   -0.372161    0.305990
      9          6           0        2.110693    0.260264    0.046282
     10          7           0        1.924013    1.581509   -0.067324
     11          6           0        4.588566    0.232374    0.511961
     12          6           0       -1.258185   -1.378253   -0.519216
     13          8           0       -1.019521   -2.419515   -1.119915
     14          7           0       -2.516611   -1.112630   -0.026861
     15          6           0       -2.877853   -0.246492    1.097817
     16          6           0       -3.916525    0.797370    0.685508
     17          8           0       -5.048487    0.197813    0.075448
     18          1           0        1.309052    3.991626   -0.255085
     19          1           0       -0.416139    3.762546    0.125303
     20          1           0        0.137442    3.656488   -1.547595
     21          1           0       -1.385779    1.404347   -0.707581
     22          1           0        1.484059   -2.983405    0.064734
     23          1           0        4.973192   -0.025828    1.502793
     24          1           0        5.292768   -0.116065   -0.248927
     25          1           0        4.462589    1.313241    0.432999
     26          1           0       -3.129852   -1.907092   -0.173430
     27          1           0       -3.294814   -0.871649    1.896361
     28          1           0       -1.978736    0.237244    1.485557
     29          1           0       -4.282309    1.322347    1.573640
     30          1           0       -3.457237    1.544030    0.019395
     31          1           0       -4.750913   -0.142501   -0.783376
 ---------------------------------------------------------------------

 SCF Done:  E(UB3LYP) =  -797.355698991     A.U. after   25 cycles

 The electronic state is 2-A.
 Alpha  occ. eigenvalues --  -19.03363 -18.94203 -14.24095 -14.20896 -14.18340
 Alpha  occ. eigenvalues --  -14.14868 -10.12360 -10.12253 -10.10148 -10.09102
 Alpha  occ. eigenvalues --  -10.08524 -10.06552 -10.04637 -10.04506 -10.02718
 Alpha  occ. eigenvalues --  -10.02383 -10.02236  -0.93645  -0.90737  -0.89727
 Alpha  occ. eigenvalues --   -0.79600  -0.79392  -0.71173  -0.65809  -0.64698
 Alpha  occ. eigenvalues --   -0.64126  -0.58890  -0.56633  -0.53576  -0.51186
 Alpha  occ. eigenvalues --   -0.48253  -0.45063  -0.43281  -0.42227  -0.39477
 Alpha  occ. eigenvalues --   -0.38445  -0.36028  -0.35642  -0.35135  -0.34756
 Alpha  occ. eigenvalues --   -0.32004  -0.30965  -0.30718  -0.30046  -0.29492
 Alpha  occ. eigenvalues --   -0.28813  -0.27898  -0.27624  -0.26622  -0.26094
 Alpha  occ. eigenvalues --   -0.25181  -0.24385  -0.23544  -0.21563  -0.19363
 Alpha  occ. eigenvalues --   -0.16556  -0.15543  -0.13860  -0.12900  -0.11336
 Alpha  occ. eigenvalues --   -0.10305  -0.09418   0.03664
 Alpha virt. eigenvalues --    0.07479   0.08314   0.08599   0.08839   0.10045
 Alpha virt. eigenvalues --    0.11272   0.11603   0.12113   0.12468   0.12717
 Alpha virt. eigenvalues --    0.13296   0.13467   0.13929   0.15041   0.15093

  Beta  occ. eigenvalues --  -19.03344 -18.93942 -14.24109 -14.20872 -14.18041
  Beta  occ. eigenvalues --  -14.14448 -10.12359 -10.12106 -10.10144 -10.09102
  Beta  occ. eigenvalues --  -10.08561 -10.06449 -10.04645 -10.04483 -10.02352
  Beta  occ. eigenvalues --  -10.02292 -10.02175  -0.93600  -0.90522  -0.89289
  Beta  occ. eigenvalues --   -0.79320  -0.78924  -0.70977  -0.65208  -0.64421
  Beta  occ. eigenvalues --   -0.64046  -0.58684  -0.56477  -0.53449  -0.50590
  Beta  occ. eigenvalues --   -0.48125  -0.44815  -0.43169  -0.42180  -0.39383
  Beta  occ. eigenvalues --   -0.38282  -0.35805  -0.35367  -0.34949  -0.34639
  Beta  occ. eigenvalues --   -0.31949  -0.30898  -0.30399  -0.29889  -0.29377
  Beta  occ. eigenvalues --   -0.28595  -0.27573  -0.27294  -0.26280  -0.25643
  Beta  occ. eigenvalues --   -0.24909  -0.24291  -0.23271  -0.20304  -0.19246
  Beta  occ. eigenvalues --   -0.15264  -0.15163  -0.13329  -0.12372  -0.10838
  Beta  occ. eigenvalues --   -0.09040  -0.08341
  Beta virt. eigenvalues --    0.07349   0.08256   0.08575   0.08790   0.09796
  Beta virt. eigenvalues --    0.10010   0.11384   0.11594   0.12160   0.12483
  Beta virt. eigenvalues --    0.12695   0.13290   0.13406   0.14447   0.15011

 Mulliken charges and spin densities:
               1          2
     1  C   -0.564527  -0.011875
     2  C   -0.445744   0.026490
     3  C   -0.232804   0.071587
     4  C    0.564022   0.340731
     5  C   -0.060107   0.023237
     6  C   -0.140534   0.022337
     7  N   -0.379758   0.148713
     8  N    0.260667  -0.023281
     9  C   -0.059538  -0.034707
    10  N   -0.091769   0.207228
    11  C   -0.309911  -0.002033
    12  C   -0.198684   0.051376
    13  O   -0.378132   0.091723
    14  N   -0.350115   0.023326
    15  C   -0.137261  -0.031585
    16  C   -0.372463  -0.035815
    17  O   -0.259790  -0.007488
    18  H    0.130637  -0.001002
    19  H    0.116595   0.001480
    20  H    0.143677   0.001819
    21  H    0.083091   0.016589
    22  H    0.169844  -0.002416
    23  H    0.133857   0.003544
    24  H    0.136898   0.001821
    25  H    0.163020  -0.001460
    26  H    0.286670   0.006792
    27  H    0.119721   0.040780
    28  H    0.193505  -0.008953
    29  H    0.131436   0.007975
    30  H    0.150202   0.016728
    31  H    0.197295   0.056341
 Sum of Mulliken charges =  -1.00000   1.00000

 Dipole moment (field-independent basis, Debye):
    X=             -1.8558    Y=              3.6723    Z=              2.1701  Tot=              4.6518
 Quadrupole moment (field-independent basis, Debye-Ang):
   XX=           -144.3337   YY=           -129.1716   ZZ=           -109.4470
   XY=              3.8105   XZ=             -1.5901   YZ=             -3.9212

 Summary of Natural Population Analysis:

                                       Natural Population
                Natural  -----------------------------------------------
    Atom  No    Charge         Core      Valence    Rydberg      Total
 -----------------------------------------------------------------------
      C    1   -0.29538      0.99964     2.29142    0.00432     3.29538
      C    2    0.11930      0.99958     1.86786    0.01326     2.88070
      C    3   -0.13060      0.99949     2.12256    0.00855     3.13060
      C    4    0.03423      0.99944     1.95507    0.01127     2.96577
      C    5   -0.06376      0.99946     2.05576    0.00854     3.06376
      C    6   -0.00075      0.99962     1.98706    0.01407     3.00075
      N    7   -0.11208      0.99972     2.60082    0.01153     3.61208
      N    8   -0.13462      0.99961     2.62090    0.01411     3.63462
      C    9    0.18488      0.99947     1.80061    0.01503     2.81512
      N   10   -0.21275      0.99963     2.70165    0.01147     3.71275
      C   11   -0.17291      0.99966     2.16657    0.00669     3.17291
      C   12    0.36021      0.99963     1.61781    0.02235     2.63979
      O   13   -0.29902      0.99988     3.29339    0.00576     4.29902
      N   14   -0.33621      0.99967     2.82388    0.01266     3.83621
      C   15   -0.10369      0.99962     2.09426    0.00981     3.10369
      C   16   -0.01386      0.99961     2.00215    0.01210     3.01386
      O   17   -0.37372      0.99990     3.36693    0.00690     4.37372
      H   18    0.10301      0.00000     0.39598    0.00102     0.39699
      H   19    0.09473      0.00000     0.40433    0.00094     0.40527
      H   20    0.09743      0.00000     0.40162    0.00095     0.40257
      H   21    0.09078      0.00000     0.40750    0.00172     0.40922
      H   22    0.09887      0.00000     0.40013    0.00099     0.40113
      H   23    0.09091      0.00000     0.40790    0.00119     0.40909
      H   24    0.09144      0.00000     0.40737    0.00119     0.40856
      H   25    0.10829      0.00000     0.39073    0.00099     0.39171
      H   26    0.18587      0.00000     0.31047    0.00365     0.31413
      H   27    0.08677      0.00000     0.41172    0.00151     0.41323
      H   28    0.11263      0.00000     0.38635    0.00102     0.38737
      H   29    0.08138      0.00000     0.41719    0.00143     0.41862
      H   30    0.07870      0.00000     0.41975    0.00156     0.42130
      H   31    0.22992      0.00000     0.26653    0.00356     0.27008
 =======================================================================
   * Total *   -0.00000     16.99363    44.79624    0.21013    62.00000

 Normal termination of Gaussian 16 at Fri Dec 11 14:06:03 2020.
