 Gaussian 16, Revision A.03,

 -----------------------------------------------------------
 # opt freq B3LYP/6-31G(d) empiricaldispersion=gd3bj scf=xqc
 -----------------------------------------------------------

 -------------------------------
 CID_148438602_JID_3668_neutraal
 -------------------------------
 Symbolic Z-matrix:
 Charge =  0 Multiplicity = 1

 SCF Done:  E(RB3LYP) =  -555.548657105     A.U. after   14 cycles
 SCF Done:  E(RB3LYP) =  -555.559214348     A.U. after   12 cycles
 SCF Done:  E(RB3LYP) =  -555.561041540     A.U. after   12 cycles
 SCF Done:  E(RB3LYP) =  -555.561492479     A.U. after   12 cycles
 SCF Done:  E(RB3LYP) =  -555.561860521     A.U. after   11 cycles
 SCF Done:  E(RB3LYP) =  -555.561989827     A.U. after   10 cycles
 SCF Done:  E(RB3LYP) =  -555.562009284     A.U. after    9 cycles
 SCF Done:  E(RB3LYP) =  -555.562012377     A.U. after    8 cycles
 SCF Done:  E(RB3LYP) =  -555.562013242     A.U. after    8 cycles
 SCF Done:  E(RB3LYP) =  -555.562013401     A.U. after    7 cycles
 SCF Done:  E(RB3LYP) =  -555.562013526     A.U. after    7 cycles
 Optimization completed.
    -- Stationary point found.
 Normal termination of Gaussian 16 at Sun Dec 13 16:02:16 2020.

 --------------------------------------------------------------------
 #N Geom=AllCheck Guess=TCheck SCRF=Check GenChk RB3LYP/6-31G(d) Freq
 --------------------------------------------------------------------

 Structure from the checkpoint file:  "JID_3668.chk"
 -------------------------------
 CID_148438602_JID_3668_neutraal
 -------------------------------
 Charge =  0 Multiplicity = 1

 SCF Done:  E(RB3LYP) =  -555.562013526     A.U. after    1 cycles

  Exact polarizability: 128.448   1.003 122.124   2.794   6.312 102.177
 Approx polarizability: 178.878   9.002 184.432   7.052  18.033 153.310

                      1                      2                      3
                      A                      A                      A
 Frequencies --     38.1029                82.1253                98.9114
 Red. masses --      3.6847                 3.5520                 3.2304
 Frc consts  --      0.0032                 0.0141                 0.0186
 IR Inten    --      1.5594                 1.5814                 0.1133

                      4                      5                      6
                      A                      A                      A
 Frequencies --    164.0761               177.2837               207.6281
 Red. masses --      2.2843                 1.6484                 2.3200
 Frc consts  --      0.0362                 0.0305                 0.0589
 IR Inten    --      0.4245                 0.9442                 0.9522

                      7                      8                      9
                      A                      A                      A
 Frequencies --    245.2597               286.1876               299.5016
 Red. masses --      3.3317                 2.8081                 1.3220
 Frc consts  --      0.1181                 0.1355                 0.0699
 IR Inten    --      1.9032                 1.5784                30.8913

                     10                     11                     12
                      A                      A                      A
 Frequencies --    354.4773               363.7911               404.3674
 Red. masses --      1.7293                 1.4327                 2.3935
 Frc consts  --      0.1280                 0.1117                 0.2306
 IR Inten    --     26.1264                22.5145                19.6215

                     13                     14                     15
                      A                      A                      A
 Frequencies --    412.7869               439.2718               468.4369
 Red. masses --      2.0243                 2.9168                 3.2445
 Frc consts  --      0.2032                 0.3316                 0.4195
 IR Inten    --      4.1866                12.6666                16.9057

                     16                     17                     18
                      A                      A                      A
 Frequencies --    517.8027               533.5996               557.9668
 Red. masses --      3.0115                 3.0353                 3.0308
 Frc consts  --      0.4757                 0.5092                 0.5559
 IR Inten    --      1.1208                28.5470                 6.2906

                     19                     20                     21
                      A                      A                      A
 Frequencies --    608.2769               613.7032               683.1283
 Red. masses --      3.2009                 4.1245                 2.6066
 Frc consts  --      0.6978                 0.9152                 0.7167
 IR Inten    --     13.3700                 1.6872                 8.4999

                     22                     23                     24
                      A                      A                      A
 Frequencies --    738.1228               745.3787               782.0809
 Red. masses --      1.7405                 1.7257                 1.7247
 Frc consts  --      0.5587                 0.5649                 0.6215
 IR Inten    --     14.4604               114.1409                 5.3136

                     25                     26                     27
                      A                      A                      A
 Frequencies --    812.0450               861.1586               888.7399
 Red. masses --      2.8261                 2.2982                 1.9097
 Frc consts  --      1.0980                 1.0041                 0.8887
 IR Inten    --     21.5425                35.0858               112.6969

                     28                     29                     30
                      A                      A                      A
 Frequencies --    913.7306               940.8218               955.2786
 Red. masses --      2.3306                 2.1848                 3.0629
 Frc consts  --      1.1465                 1.1394                 1.6468
 IR Inten    --     19.5308                15.9579                 5.9532

                     31                     32                     33
                      A                      A                      A
 Frequencies --    978.9461               991.5898              1000.3958
 Red. masses --      2.4674                 1.9331                 1.2661
 Frc consts  --      1.3932                 1.1199                 0.7466
 IR Inten    --     44.6198                 2.7833                 0.3303

                     34                     35                     36
                      A                      A                      A
 Frequencies --   1008.2236              1020.1977              1039.3498
 Red. masses --      1.7436                 1.7671                 1.7934
 Frc consts  --      1.0442                 1.0836                 1.1415
 IR Inten    --     91.1928                18.6586                19.7939

                     37                     38                     39
                      A                      A                      A
 Frequencies --   1047.4079              1068.4604              1081.3577
 Red. masses --      1.9971                 2.0091                 1.5820
 Frc consts  --      1.2909                 1.3514                 1.0899
 IR Inten    --      3.6171                 6.8650                10.1511

                     40                     41                     42
                      A                      A                      A
 Frequencies --   1095.3951              1117.3762              1125.6426
 Red. masses --      2.3438                 1.8381                 1.5579
 Frc consts  --      1.6570                 1.3521                 1.1630
 IR Inten    --     23.6953                 8.6105                 2.8165

                     43                     44                     45
                      A                      A                      A
 Frequencies --   1193.6260              1205.2760              1221.1346
 Red. masses --      1.3610                 1.2564                 1.6836
 Frc consts  --      1.1425                 1.0753                 1.4791
 IR Inten    --      2.8400                 1.4097                 6.0921

                     46                     47                     48
                      A                      A                      A
 Frequencies --   1264.6813              1287.9780              1293.4836
 Red. masses --      1.3149                 1.2797                 1.4110
 Frc consts  --      1.2391                 1.2507                 1.3909
 IR Inten    --      1.4723                16.2378                20.7384

                     49                     50                     51
                      A                      A                      A
 Frequencies --   1314.4140              1329.2910              1340.8430
 Red. masses --      1.8795                 1.6561                 1.4771
 Frc consts  --      1.9132                 1.7242                 1.5647
 IR Inten    --     27.5581                 3.2018                 1.7872

                     52                     53                     54
                      A                      A                      A
 Frequencies --   1350.5469              1365.3231              1395.7711
 Red. masses --      1.5122                 1.3928                 1.3934
 Frc consts  --      1.6250                 1.5297                 1.5993
 IR Inten    --      7.0481                 3.0452                 3.6030

                     55                     56                     57
                      A                      A                      A
 Frequencies --   1402.3372              1412.2207              1431.9951
 Red. masses --      1.6154                 1.2555                 1.4836
 Frc consts  --      1.8717                 1.4753                 1.7924
 IR Inten    --     14.6234                14.4737                 1.9289

                     58                     59                     60
                      A                      A                      A
 Frequencies --   1442.0162              1456.2689              1458.1346
 Red. masses --      1.2987                 1.4742                 1.6207
 Frc consts  --      1.5911                 1.8420                 2.0302
 IR Inten    --      0.4768                16.1991                30.6177

                     61                     62                     63
                      A                      A                      A
 Frequencies --   1506.6850              1519.5782              1522.7113
 Red. masses --      1.0468                 1.0771                 1.0948
 Frc consts  --      1.4001                 1.4654                 1.4956
 IR Inten    --      8.9074                 4.3724                 2.1920

                     64                     65                     66
                      A                      A                      A
 Frequencies --   1687.9745              1698.9102              1732.6392
 Red. masses --      1.0890                 1.0956                 6.6264
 Frc consts  --      1.8281                 1.8632                11.7205
 IR Inten    --     34.7196                18.5828                 3.5049

                     67                     68                     69
                      A                      A                      A
 Frequencies --   1746.1508              2995.6096              3015.8413
 Red. masses --      6.6584                 1.0849                 1.0812
 Frc consts  --     11.9615                 5.7359                 5.7937
 IR Inten    --     17.9085                18.1089                 6.3396

                     70                     71                     72
                      A                      A                      A
 Frequencies --   3018.8450              3031.9109              3034.9666
 Red. masses --      1.0838                 1.0422                 1.0857
 Frc consts  --      5.8195                 5.6448                 5.8918
 IR Inten    --     79.9222                41.9540                64.7839

                     73                     74                     75
                      A                      A                      A
 Frequencies --   3054.5941              3080.9293              3097.2037
 Red. masses --      1.0678                 1.0970                 1.0986
 Frc consts  --      5.8702                 6.1350                 6.2089
 IR Inten    --     65.5593                21.1797                20.0956

                     76                     77                     78
                      A                      A                      A
 Frequencies --   3142.2817              3150.8205              3196.0939
 Red. masses --      1.0986                 1.0868                 1.0939
 Frc consts  --      6.3912                 6.3572                 6.5838
 IR Inten    --     15.1127                23.1922                25.4826

                     79                     80                     81
                      A                      A                      A
 Frequencies --   3233.6997              3433.6798              3447.2057
 Red. masses --      1.0944                 1.0502                 1.0491
 Frc consts  --      6.7426                 7.2950                 7.3454
 IR Inten    --     11.7120                15.9928                 2.6279

                     82                     83                     84
                      A                      A                      A
 Frequencies --   3494.9707              3517.2607              3535.2700
 Red. masses --      1.0752                 1.0902                 1.0919
 Frc consts  --      7.7382                 7.9461                 8.0406
 IR Inten    --      0.6687                 1.7929                 1.5713

 - Thermochemistry -
 -------------------
 Temperature   298.150 Kelvin.  Pressure   1.00000 Atm.
 Atom     1 has atomic number  6 and mass  12.00000

 Molecular mass:   179.14225 amu.
 Principal axes and moments of inertia in atomic units:
                           1         2         3
     Eigenvalues --  1595.596302643.027933185.23400
           X            0.99990  -0.01319   0.00533
           Y            0.01329   0.99974  -0.01846
           Z           -0.00509   0.01853   0.99982
 This molecule is an asymmetric top.
 Rotational symmetry number  1.
 Warning -- assumption of classical behavior for rotation
           may cause significant error
 Rotational temperatures (Kelvin)      0.05428     0.03277     0.02719
 Rotational constants (GHZ):           1.13108     0.68283     0.56660
 Zero-point vibrational energy     704777.3 (Joules/Mol)
                                  168.44581 (Kcal/Mol)
 Warning -- explicit consideration of  20 degrees of freedom as
           vibrations may cause significant error
 Vibrational temperatures:     54.82   118.16   142.31   236.07   255.07
          (Kelvin)            298.73   352.87   411.76   430.92   510.01
                              523.41   581.79   593.91   632.01   673.98
                              745.00   767.73   802.79   875.17   882.98
                              982.87  1061.99  1072.43  1125.24  1168.35
                             1239.02  1278.70  1314.65  1353.63  1374.43
                             1408.49  1426.68  1439.35  1450.61  1467.84
                             1495.39  1506.99  1537.28  1555.83  1576.03
                             1607.66  1619.55  1717.36  1734.12  1756.94
                             1819.59  1853.11  1861.03  1891.15  1912.55
                             1929.17  1943.14  1964.40  2008.20  2017.65
                             2031.87  2060.32  2074.74  2095.25  2097.93
                             2167.78  2186.33  2190.84  2428.62  2444.35
                             2492.88  2512.32  4310.01  4339.12  4343.44
                             4362.24  4366.64  4394.88  4432.77  4456.19
                             4521.04  4533.33  4598.47  4652.57  4940.30
                             4959.76  5028.48  5060.55  5086.47

 Zero-point correction=                           0.268435 (Hartree/Particle)
 Thermal correction to Energy=                    0.280789
 Thermal correction to Enthalpy=                  0.281733
 Thermal correction to Gibbs Free Energy=         0.230254
 Sum of electronic and zero-point Energies=           -555.293578
 Sum of electronic and thermal Energies=              -555.281225
 Sum of electronic and thermal Enthalpies=            -555.280281
 Sum of electronic and thermal Free Energies=         -555.331759

                     E (Thermal)             CV                S
                      KCal/Mol        Cal/Mol-Kelvin    Cal/Mol-Kelvin
 Total                  176.197             49.650            108.346
 Electronic               0.000              0.000              0.000
 Translational            0.889              2.981             41.456
 Rotational               0.889              2.981             30.975
 Vibrational            174.420             43.688             35.915
 Vibration     1          0.594              1.982              5.355
 Vibration     2          0.600              1.961              3.839
 Vibration     3          0.604              1.950              3.476
 Vibration     4          0.623              1.887              2.502
 Vibration     5          0.628              1.870              2.357
 Vibration     6          0.641              1.829              2.064
 Vibration     7          0.660              1.771              1.764
 Vibration     8          0.684              1.699              1.496
 Vibration     9          0.692              1.675              1.420
 Vibration    10          0.730              1.566              1.146
 Vibration    11          0.737              1.547              1.106
 Vibration    12          0.770              1.461              0.947
 Vibration    13          0.777              1.442              0.917
 Vibration    14          0.799              1.385              0.829
 Vibration    15          0.826              1.320              0.742
 Vibration    16          0.873              1.211              0.615
 Vibration    17          0.889              1.176              0.579
 Vibration    18          0.914              1.122              0.528
 Vibration    19          0.967              1.014              0.436
 Vibration    20          0.973              1.003              0.427

                           ! Non-Optimized Parameters !
 Normal termination of Gaussian 16 at Sun Dec 13 16:11:20 2020.

 ----------------------------------------------------------------------
 # B3LYP/6-311++G(d,p) empiricaldispersion=gd3bj scf=xqc pop=npa geom=c
 heck
 ----------------------------------------------------------------------

 ---------------------------------------
 CID_148438602_JID_3668_Energie_neutraal
 ---------------------------------------
 Structure from the checkpoint file:  "JID_3668.chk"
 Charge =  0 Multiplicity = 1

 SCF Done:  E(RB3LYP) =  -555.732639458     A.U. after   15 cycles
 Normal termination of Gaussian 16 at Sun Dec 13 16:15:30 2020.

 ----------------------------------------------------------------------
 # B3LYP/6-311++G(d,p) empiricaldispersion=gd3bj scf=xqc pop=npa geom=c
 heck
 ----------------------------------------------------------------------

 -------------------------------------
 CID_148438602_JID_3668_Energie_kation
 -------------------------------------
 Structure from the checkpoint file:  "JID_3668.chk"
 Charge =  1 Multiplicity = 2

 SCF Done:  E(UB3LYP) =  -555.459030862     A.U. after   25 cycles
 Normal termination of Gaussian 16 at Sun Dec 13 16:25:21 2020.
 Gaussian 16:  ES64L-G16RevA.03 25-Dec-2016

 ----------------------------------------------------------------------
 # B3LYP/6-311++G(d,p) empiricaldispersion=gd3bj scf=xqc pop=npa geom=c
 heck
 ----------------------------------------------------------------------

 ------------------------------------
 CID_148438602_JID_3668_Energie_anion
 ------------------------------------
 Structure from the checkpoint file:  "JID_3668.chk"
 Charge = -1 Multiplicity = 2

                         Standard orientation:
 ---------------------------------------------------------------------
 Center     Atomic      Atomic             Coordinates (Angstroms)
 Number     Number       Type             X           Y           Z
 ---------------------------------------------------------------------
      1          6           0       -2.819910    1.856829   -0.731493
      2          6           0       -2.125003    0.627933   -0.242049
      3          6           0       -2.191119   -0.624361   -0.711328
      4          6           0       -1.252542   -1.537177    0.058223
      5          6           0       -0.116754   -2.036110   -0.808754
      6          6           0        1.153314   -1.640824   -0.700828
      7          6           0        1.603083   -0.636876    0.330176
      8          6           0        0.686937   -0.707487    1.563159
      9          6           0       -0.802243   -0.614727    1.238495
     10          7           0       -1.197239    0.759475    0.821231
     11          6           0        1.732185    0.758604   -0.338205
     12          7           0        1.836862    1.812726    0.686753
     13          7           0        2.906019    0.726268   -1.204075
     14          1           0       -3.431438    2.313164    0.059636
     15          1           0       -3.476071    1.626131   -1.574532
     16          1           0       -2.091444    2.612937   -1.050556
     17          1           0       -2.742501   -0.932947   -1.591282
     18          1           0       -1.790019   -2.413331    0.450438
     19          1           0       -0.399953   -2.741870   -1.589096
     20          1           0        1.900109   -2.003084   -1.401882
     21          1           0        2.616422   -0.893885    0.670387
     22          1           0        0.964142    0.066243    2.286839
     23          1           0        0.864053   -1.674015    2.052005
     24          1           0       -1.378601   -0.893759    2.131562
     25          1           0       -1.554176    1.312848    1.597220
     26          1           0        0.861448    0.903336   -0.992244
     27          1           0        2.060223    2.688028    0.210504
     28          1           0        0.899987    1.944715    1.071955
     29          1           0        2.932617    1.560215   -1.789508
     30          1           0        3.738007    0.761157   -0.613183
 ---------------------------------------------------------------------

 SCF Done:  E(UB3LYP) =  -555.720988177     A.U. after   31 cycles

 The electronic state is 2-A.
 Alpha  occ. eigenvalues --  -14.20268 -14.19209 -14.17943 -10.11274 -10.09651
 Alpha  occ. eigenvalues --  -10.09453 -10.07629 -10.06852 -10.06324 -10.06233
 Alpha  occ. eigenvalues --  -10.05967 -10.05936 -10.04446  -0.83207  -0.81414
 Alpha  occ. eigenvalues --   -0.72974  -0.71952  -0.67207  -0.64864  -0.62262
 Alpha  occ. eigenvalues --   -0.58407  -0.53130  -0.49377  -0.47732  -0.44593
 Alpha  occ. eigenvalues --   -0.41464  -0.41039  -0.38091  -0.37641  -0.36606
 Alpha  occ. eigenvalues --   -0.35288  -0.33252  -0.32350  -0.31362  -0.30541
 Alpha  occ. eigenvalues --   -0.30261  -0.29600  -0.28197  -0.27121  -0.27081
 Alpha  occ. eigenvalues --   -0.25336  -0.23366  -0.22845  -0.20390  -0.19169
 Alpha  occ. eigenvalues --   -0.15373  -0.14489  -0.14054  -0.09491   0.04369
 Alpha virt. eigenvalues --    0.06672   0.07331   0.07742   0.09099   0.09444
 Alpha virt. eigenvalues --    0.09593   0.10094   0.10406   0.11008   0.12056
 Alpha virt. eigenvalues --    0.12178   0.12393   0.12871   0.13294   0.13805

  Beta  occ. eigenvalues --  -14.20226 -14.19186 -14.17915 -10.11265 -10.09633
  Beta  occ. eigenvalues --  -10.09453 -10.07624 -10.06849 -10.06319 -10.06186
  Beta  occ. eigenvalues --  -10.05958 -10.05932 -10.04434  -0.83163  -0.81373
  Beta  occ. eigenvalues --   -0.72916  -0.71926  -0.67175  -0.64827  -0.62223
  Beta  occ. eigenvalues --   -0.58354  -0.53080  -0.49335  -0.47699  -0.44538
  Beta  occ. eigenvalues --   -0.41426  -0.40982  -0.38049  -0.37603  -0.36573
  Beta  occ. eigenvalues --   -0.35247  -0.33214  -0.32308  -0.31322  -0.30515
  Beta  occ. eigenvalues --   -0.30225  -0.29568  -0.28162  -0.27083  -0.27048
  Beta  occ. eigenvalues --   -0.25304  -0.23339  -0.22823  -0.20369  -0.19132
  Beta  occ. eigenvalues --   -0.15338  -0.14465  -0.14028  -0.09458
  Beta virt. eigenvalues --    0.06691   0.07496   0.07883   0.08383   0.09379
  Beta virt. eigenvalues --    0.09896   0.10116   0.10348   0.10764   0.11116
  Beta virt. eigenvalues --    0.12241   0.12492   0.12731   0.13430   0.13540

 Mulliken charges and spin densities:
               1          2
     1  C    3.022734  -3.653265
     2  C   -1.061069   0.636735
     3  C   -0.838550   0.933907
     4  C    0.872568  -1.348926
     5  C    0.324110  -0.491682
     6  C   -1.375515   0.823113
     7  C    1.266163  -0.402490
     8  C   -0.275656  -0.581797
     9  C   -0.213043   0.696725
    10  N   -0.435351   0.265900
    11  C   -0.082945  -0.705121
    12  N   -0.456123   0.098356
    13  N   -0.395550   0.081351
    14  H   -0.479575   0.636159
    15  H   -0.218902   0.370442
    16  H   -0.357412   0.514953
    17  H   -0.369256   0.530331
    18  H   -0.081776   0.264681
    19  H    0.075035   0.075266
    20  H    0.041531   0.114432
    21  H    0.219688  -0.022485
    22  H    0.022092   0.153423
    23  H    0.081169   0.047086
    24  H   -0.630976   0.869569
    25  H   -0.179093   0.463344
    26  H    0.396749  -0.187765
    27  H   -0.129677   0.362087
    28  H    0.255584   0.006729
    29  H   -0.077082   0.311587
    30  H    0.080128   0.137355
 Sum of Mulliken charges =  -1.00000   1.00000

 Dipole moment (field-independent basis, Debye):
    X=              3.2579    Y=             -4.4521    Z=             -1.1507  Tot=              5.6355
 Quadrupole moment (field-independent basis, Debye-Ang):
   XX=           -135.6151   YY=           -124.6447   ZZ=           -118.1389
   XY=              2.6650   XZ=              6.4172   YZ=             -0.8261

 Summary of Natural Population Analysis:

                                       Natural Population
                Natural  -----------------------------------------------
    Atom  No    Charge         Core      Valence    Rydberg      Total
 -----------------------------------------------------------------------
      C    1   -0.29939      0.99962     2.29372    0.00605     3.29939
      C    2    0.09896      0.99946     1.88908    0.01250     2.90104
      C    3   -0.13758      0.99942     2.12793    0.01022     3.13758
      C    4   -0.13686      0.99957     2.12531    0.01198     3.13686
      C    5   -0.08874      0.99950     2.07935    0.00989     3.08874
      C    6   -0.08749      0.99951     2.07770    0.01028     3.08749
      C    7   -0.12819      0.99955     2.11583    0.01281     3.12819
      C    8   -0.19206      0.99959     2.18265    0.00982     3.19206
      C    9    0.00140      0.99959     1.98504    0.01397     2.99860
      N   10   -0.34374      0.99969     2.82907    0.01498     3.84374
      C   11    0.07993      0.99961     1.90661    0.01385     2.92007
      N   12   -0.43736      0.99976     2.92703    0.01058     3.93736
      N   13   -0.42180      0.99976     2.91202    0.01001     3.92180
      H   14    0.10626      0.00000     0.39167    0.00207     0.39374
      H   15    0.10486      0.00000     0.39411    0.00102     0.39514
      H   16    0.10819      0.00000     0.39003    0.00178     0.39181
      H   17    0.10075      0.00000     0.39837    0.00088     0.39925
      H   18    0.10292      0.00000     0.39579    0.00129     0.39708
      H   19    0.09383      0.00000     0.40508    0.00109     0.40617
      H   20    0.10083      0.00000     0.39808    0.00109     0.39917
      H   21    0.09971      0.00000     0.39873    0.00157     0.40029
      H   22    0.10805      0.00000     0.39056    0.00139     0.39195
      H   23    0.09970      0.00000     0.39931    0.00099     0.40030
      H   24    0.09420      0.00000     0.40382    0.00199     0.40580
      H   25    0.18772      0.00000     0.30522    0.00706     0.31228
      H   26    0.08329      0.00000     0.41371    0.00300     0.41671
      H   27    0.17263      0.00000     0.32460    0.00277     0.32737
      H   28    0.18492      0.00000     0.31239    0.00269     0.31508
      H   29    0.17423      0.00000     0.32400    0.00176     0.32577
      H   30    0.17083      0.00000     0.32720    0.00197     0.32917
 =======================================================================
   * Total *   -0.00000     12.99464    35.82401    0.18135    49.00000

 Normal termination of Gaussian 16 at Sun Dec 13 16:37:30 2020.
