 Gaussian 16, Revision A.03,

 -----------------------------------------------------------
 # opt freq B3LYP/6-31G(d) empiricaldispersion=gd3bj scf=xqc
 -----------------------------------------------------------

 -------------------------------
 CID_142967916_JID_1105_neutraal
 -------------------------------
 Symbolic Z-matrix:
 Charge =  0 Multiplicity = 1

 SCF Done:  E(RB3LYP) =  -500.587732121     A.U. after   14 cycles
 SCF Done:  E(RB3LYP) =  -500.590589887     A.U. after   13 cycles
 SCF Done:  E(RB3LYP) =  -500.590889590     A.U. after   11 cycles
 SCF Done:  E(RB3LYP) =  -500.591060872     A.U. after   11 cycles
 SCF Done:  E(RB3LYP) =  -500.591118861     A.U. after   11 cycles
 SCF Done:  E(RB3LYP) =  -500.591136994     A.U. after   10 cycles
 SCF Done:  E(RB3LYP) =  -500.591138337     A.U. after    8 cycles
 SCF Done:  E(RB3LYP) =  -500.591138896     A.U. after    8 cycles
 SCF Done:  E(RB3LYP) =  -500.591139121     A.U. after    7 cycles
 SCF Done:  E(RB3LYP) =  -500.591139235     A.U. after    7 cycles
 SCF Done:  E(RB3LYP) =  -500.591139305     A.U. after    6 cycles
 SCF Done:  E(RB3LYP) =  -500.591139340     A.U. after    6 cycles
 Optimization completed.
    -- Stationary point found.

 1\1\GINC-NODE309\FOpt\RB3LYP\6-31G(d)\C9H12O2\VSC10255\08-Dec-2020\0\\
 # opt freq B3LYP/6-31G(d) empiricaldispersion=gd3bj scf=xqc\\CID_14296
 7916_JID_1105_neutraal\\0,1\C,0.856879481,0.0824800559,0.0076201969\C,
 0.4557656364,0.9936255323,-1.1138075133\C,-0.1821076652,0.6581602606,-
 2.2526415056\C,-0.5516914872,-0.6820671176,-2.6594633663\C,-1.32094543
 48,-1.0193072404,-3.717862338\C,-2.0365786554,-0.1284268612,-4.6533603
 139\C,-2.6421535221,1.011221452,-4.2988808432\C,-2.0840750591,-0.64236
 68333,-6.0783664902\O,-2.406246976,-2.0337278904,-6.09630719\C,-1.4868

 Normal termination of Gaussian 16 at Tue Dec  8 19:12:00 2020.

 --------------------------------------------------------------------
 #N Geom=AllCheck Guess=TCheck SCRF=Check GenChk RB3LYP/6-31G(d) Freq
 --------------------------------------------------------------------

 Structure from the checkpoint file:  "JID_1105.chk"
 -------------------------------
 CID_142967916_JID_1105_neutraal
 -------------------------------
 Charge =  0 Multiplicity = 1

 SCF Done:  E(RB3LYP) =  -500.591139340     A.U. after    1 cycles

  Exact polarizability: 169.190   3.054 103.267  -0.516  -2.499  60.129
 Approx polarizability: 244.348  -1.483 153.455  -7.301  -4.350  90.359

                      1                      2                      3
                      A                      A                      A
 Frequencies --     47.1590                88.0952               113.8135
 Red. masses --      3.8236                 3.6340                 1.2264
 Frc consts  --      0.0050                 0.0166                 0.0094
 IR Inten    --      0.7339                 0.1172                 0.4822

                      4                      5                      6
                      A                      A                      A
 Frequencies --    127.1770               150.8103               212.3770
 Red. masses --      2.2131                 3.1132                 3.3635
 Frc consts  --      0.0211                 0.0417                 0.0894
 IR Inten    --      4.0588                 1.0220                 1.1425

                      7                      8                      9
                      A                      A                      A
 Frequencies --    228.7692               306.8213               341.9525
 Red. masses --      4.0215                 2.9226                 3.0998
 Frc consts  --      0.1240                 0.1621                 0.2136
 IR Inten    --      2.6364                 0.3576                 2.3239

                     10                     11                     12
                      A                      A                      A
 Frequencies --    401.1493               417.2244               467.3448
 Red. masses --      2.4405                 3.8816                 2.6472
 Frc consts  --      0.2314                 0.3981                 0.3406
 IR Inten    --      4.0098                 6.5314                 0.7610

                     13                     14                     15
                      A                      A                      A
 Frequencies --    475.0593               563.9856               595.2834
 Red. masses --      3.4106                 3.1998                 4.6704
 Frc consts  --      0.4535                 0.5997                 0.9751
 IR Inten    --      0.9406                26.5094                 3.1911

                     16                     17                     18
                      A                      A                      A
 Frequencies --    645.6878               710.1661               762.4317
 Red. masses --      2.8016                 5.0409                 1.2259
 Frc consts  --      0.6882                 1.4979                 0.4199
 IR Inten    --      3.4333                13.0369                25.8855

                     19                     20                     21
                      A                      A                      A
 Frequencies --    773.0192               811.9665               904.1551
 Red. masses --      1.3476                 3.6394                 1.5030
 Frc consts  --      0.4744                 1.4137                 0.7239
 IR Inten    --     16.4260                 8.3522                 8.7827

                     22                     23                     24
                      A                      A                      A
 Frequencies --    933.3711               941.6016               955.9051
 Red. masses --      2.3506                 1.3854                 2.0743
 Frc consts  --      1.2065                 0.7237                 1.1167
 IR Inten    --     31.5753                32.0113                 5.4646

                     25                     26                     27
                      A                      A                      A
 Frequencies --    982.3404              1016.5428              1021.6278
 Red. masses --      3.6927                 2.7892                 1.3484
 Frc consts  --      2.0995                 1.6982                 0.8292
 IR Inten    --     33.7306               144.8513                23.1183

                     28                     29                     30
                      A                      A                      A
 Frequencies --   1043.8964              1068.4838              1076.5883
 Red. masses --      1.8060                 1.4779                 1.7188
 Frc consts  --      1.1595                 0.9941                 1.1737
 IR Inten    --     32.3225                 2.3483                 1.3053

                     31                     32                     33
                      A                      A                      A
 Frequencies --   1090.9243              1154.2323              1191.1722
 Red. masses --      6.2809                 2.0976                 2.4564
 Frc consts  --      4.4041                 1.6465                 2.0535
 IR Inten    --    192.8075                45.4222                16.5032

                     34                     35                     36
                      A                      A                      A
 Frequencies --   1224.3046              1267.4389              1275.3757
 Red. masses --      3.0124                 1.9265                 1.1512
 Frc consts  --      2.6603                 1.8234                 1.1033
 IR Inten    --    243.1213                 1.6244                16.7537

                     37                     38                     39
                      A                      A                      A
 Frequencies --   1302.6577              1338.4330              1367.2498
 Red. masses --      1.1833                 1.1583                 1.7475
 Frc consts  --      1.1831                 1.2226                 1.9247
 IR Inten    --      3.9960                 4.7569                20.8635

                     40                     41                     42
                      A                      A                      A
 Frequencies --   1393.3124              1438.0854              1460.3195
 Red. masses --      1.2533                 1.2319                 1.2525
 Frc consts  --      1.4335                 1.5010                 1.5737
 IR Inten    --     30.4712                 7.8039                30.5042

                     43                     44                     45
                      A                      A                      A
 Frequencies --   1467.5634              1483.5075              1510.7322
 Red. masses --      1.5405                 1.2839                 1.0496
 Frc consts  --      1.9548                 1.6649                 1.4114
 IR Inten    --      3.6463                29.4452                 4.9955

                     46                     47                     48
                      A                      A                      A
 Frequencies --   1517.4329              1519.7431              1539.4978
 Red. masses --      1.0943                 1.0840                 1.1063
 Frc consts  --      1.4846                 1.4751                 1.5449
 IR Inten    --      3.7747                11.1903                 3.0794

                     49                     50                     51
                      A                      A                      A
 Frequencies --   1675.9438              1710.5971              1730.6427
 Red. masses --      7.6415                 5.4383                 5.6711
 Frc consts  --     12.6458                 9.3759                10.0076
 IR Inten    --     34.6779                 4.9063                10.7657

                     52                     53                     54
                      A                      A                      A
 Frequencies --   2967.5933              2981.4056              3032.2475
 Red. masses --      1.0713                 1.0715                 1.0407
 Frc consts  --      5.5586                 5.6113                 5.6379
 IR Inten    --     71.7503                81.5582                42.5093

                     55                     56                     57
                      A                      A                      A
 Frequencies --   3072.9139              3134.8897              3135.6849
 Red. masses --      1.0997                 1.0947                 1.0927
 Frc consts  --      6.1182                 6.3383                 6.3302
 IR Inten    --     24.1029                 5.6811                22.9664

                     58                     59                     60
                      A                      A                      A
 Frequencies --   3157.1845              3162.6427              3169.0664
 Red. masses --      1.0868                 1.0953                 1.0623
 Frc consts  --      6.3825                 6.4548                 6.2858
 IR Inten    --     21.8683                39.5040                 5.9677

                     61                     62                     63
                      A                      A                      A
 Frequencies --   3184.3465              3195.4242              3259.5477
 Red. masses --      1.0912                 1.0872                 1.1141
 Frc consts  --      6.5189                 6.5405                 6.9742
 IR Inten    --     11.9208                17.6464                 7.9323

 - Thermochemistry -
 -------------------
 Temperature   298.150 Kelvin.  Pressure   1.00000 Atm.
 Atom     1 has atomic number  6 and mass  12.00000

 Molecular mass:   152.08373 amu.
 Principal axes and moments of inertia in atomic units:
                           1         2         3
     Eigenvalues --   749.881873055.862733646.29267
           X            0.99990   0.01215   0.00657
           Y           -0.01210   0.99990  -0.00705
           Z           -0.00665   0.00697   0.99995
 This molecule is an asymmetric top.
 Rotational symmetry number  1.
 Warning -- assumption of classical behavior for rotation
           may cause significant error
 Rotational temperatures (Kelvin)      0.11550     0.02834     0.02375
 Rotational constants (GHZ):           2.40670     0.59058     0.49495
 Zero-point vibrational energy     510188.9 (Joules/Mol)
                                  121.93807 (Kcal/Mol)
 Warning -- explicit consideration of  15 degrees of freedom as
           vibrations may cause significant error
 Vibrational temperatures:     67.85   126.75   163.75   182.98   216.98
          (Kelvin)            305.56   329.15   441.45   491.99   577.16
                              600.29   672.40   683.50   811.45   856.48
                              929.00  1021.77  1096.97  1112.20  1168.24
                             1300.88  1342.91  1354.75  1375.33  1413.37
                             1462.58  1469.89  1501.93  1537.31  1548.97
                             1569.60  1660.68  1713.83  1761.50  1823.56
                             1834.98  1874.23  1925.71  1967.17  2004.67
                             2069.08  2101.07  2111.50  2134.44  2173.61
                             2183.25  2186.57  2214.99  2411.31  2461.17
                             2490.01  4269.70  4289.58  4362.73  4421.24
                             4510.41  4511.55  4542.48  4550.34  4559.58
                             4581.56  4597.50  4689.76

 Zero-point correction=                           0.194321 (Hartree/Particle)
 Thermal correction to Energy=                    0.205133
 Thermal correction to Enthalpy=                  0.206078
 Thermal correction to Gibbs Free Energy=         0.157360
 Sum of electronic and zero-point Energies=           -500.396819
 Sum of electronic and thermal Energies=              -500.386006
 Sum of electronic and thermal Enthalpies=            -500.385062
 Sum of electronic and thermal Free Energies=         -500.433780

                     E (Thermal)             CV                S
                      KCal/Mol        Cal/Mol-Kelvin    Cal/Mol-Kelvin
 Total                  128.723             40.361            102.535
 Electronic               0.000              0.000              0.000
 Translational            0.889              2.981             40.968
 Rotational               0.889              2.981             30.503
 Vibrational            126.946             34.399             31.064
 Vibration     1          0.595              1.979              4.933
 Vibration     2          0.601              1.958              3.702
 Vibration     3          0.607              1.938              3.203
 Vibration     4          0.611              1.926              2.988
 Vibration     5          0.618              1.902              2.662
 Vibration     6          0.643              1.822              2.023
 Vibration     7          0.651              1.797              1.889
 Vibration     8          0.697              1.661              1.379
 Vibration     9          0.721              1.592              1.203
 Vibration    10          0.767              1.468              0.958
 Vibration    11          0.780              1.433              0.901
 Vibration    12          0.825              1.322              0.745
 Vibration    13          0.832              1.305              0.724
 Vibration    14          0.920              1.109              0.516
 Vibration    15          0.953              1.042              0.458

 Optimization completed.
    -- Stationary point found.

 1\1\GINC-NODE309\Freq\RB3LYP\6-31G(d)\C9H12O2\VSC10255\08-Dec-2020\0\\
 #N Geom=AllCheck Guess=TCheck SCRF=Check GenChk RB3LYP/6-31G(d) Freq\\
 CID_142967916_JID_1105_neutraal\\0,1\C,0.856879481,0.0824800559,0.0076
 201969\C,0.4557656364,0.9936255323,-1.1138075133\C,-0.1821076652,0.658
 1602606,-2.2526415056\C,-0.5516914872,-0.6820671176,-2.6594633663\C,-1
 .3209454348,-1.0193072404,-3.717862338\C,-2.0365786554,-0.1284268612,-
 4.6533603139\C,-2.6421535221,1.011221452,-4.2988808432\C,-2.0840750591
 ,-0.6423668333,-6.0783664902\O,-2.406246976,-2.0337278904,-6.09630719\

 Normal termination of Gaussian 16 at Tue Dec  8 19:15:49 2020.

 ----------------------------------------------------------------------
 # B3LYP/6-311++G(d,p) empiricaldispersion=gd3bj scf=xqc pop=npa geom=c
 heck
 ----------------------------------------------------------------------

 ---------------------------------------
 CID_142967916_JID_1105_Energie_neutraal
 ---------------------------------------
 Structure from the checkpoint file:  "JID_1105.chk"
 Charge =  0 Multiplicity = 1

 SCF Done:  E(RB3LYP) =  -500.734522903     A.U. after   15 cycles
 Normal termination of Gaussian 16 at Tue Dec  8 19:17:13 2020.

 ----------------------------------------------------------------------
 # B3LYP/6-311++G(d,p) empiricaldispersion=gd3bj scf=xqc pop=npa geom=c
 heck
 ----------------------------------------------------------------------

 -------------------------------------
 CID_142967916_JID_1105_Energie_kation
 -------------------------------------
 Structure from the checkpoint file:  "JID_1105.chk"
 Charge =  1 Multiplicity = 2

 SCF Done:  E(UB3LYP) =  -500.455813933     A.U. after   20 cycles
 Normal termination of Gaussian 16 at Tue Dec  8 19:19:42 2020.
 Gaussian 16:  ES64L-G16RevA.03 25-Dec-2016

 ------------------------------------
 CID_142967916_JID_1105_Energie_anion
 ------------------------------------
 Structure from the checkpoint file:  "JID_1105.chk"
 Charge = -1 Multiplicity = 2

                         Standard orientation:
 ---------------------------------------------------------------------
 Center     Atomic      Atomic             Coordinates (Angstroms)
 Number     Number       Type             X           Y           Z
 ---------------------------------------------------------------------
      1          6           0       -4.154921   -0.768178   -0.109825
      2          6           0       -3.368417    0.431338    0.327500
      3          6           0       -2.028357    0.574843    0.330296
      4          6           0       -1.061509   -0.442403   -0.028481
      5          6           0        0.270512   -0.271075   -0.176996
      6          6           0        1.048841    0.981712   -0.101607
      7          6           0        0.624849    2.164511   -0.562468
      8          6           0        2.427798    0.814277    0.504592
      9          8           0        3.069917   -0.344532   -0.029121
     10          6           0        2.272626   -1.471612    0.184283
     11          8           0        1.021237   -1.399157   -0.480857
     12          1           0       -3.521067   -1.587895   -0.457271
     13          1           0       -4.838483   -0.507060   -0.929281
     14          1           0       -4.781406   -1.147029    0.709259
     15          1           0       -3.962074    1.277036    0.672643
     16          1           0       -1.624475    1.527566    0.663569
     17          1           0       -1.411106   -1.462737   -0.159952
     18          1           0        1.252417    3.049200   -0.489190
     19          1           0       -0.342186    2.285500   -1.037477
     20          1           0        2.350613    0.712607    1.600909
     21          1           0        3.071461    1.666282    0.277433
     22          1           0        2.094391   -1.614722    1.264909
     23          1           0        2.794157   -2.329717   -0.239485
 ---------------------------------------------------------------------

 SCF Done:  E(UB3LYP) =  -500.726906386     A.U. after   33 cycles
 SCF Done:  E(UB3LYP) =  -500.726906386     a.u. after    1 cycles

 The electronic state is 2-A.
 Alpha  occ. eigenvalues --  -19.01059 -18.99941 -10.14309 -10.09332 -10.05730
 Alpha  occ. eigenvalues --  -10.03565 -10.02365 -10.01321 -10.00823 -10.00399
 Alpha  occ. eigenvalues --   -9.99730  -0.95477  -0.88773  -0.67549  -0.64781
 Alpha  occ. eigenvalues --   -0.59657  -0.57879  -0.54218  -0.50231  -0.47078
 Alpha  occ. eigenvalues --   -0.41620  -0.38844  -0.37646  -0.36396  -0.33917
 Alpha  occ. eigenvalues --   -0.32030  -0.30743  -0.28632  -0.28378  -0.28010
 Alpha  occ. eigenvalues --   -0.26718  -0.25459  -0.23978  -0.22846  -0.21211
 Alpha  occ. eigenvalues --   -0.18687  -0.17876  -0.15008  -0.13989  -0.12735
 Alpha  occ. eigenvalues --   -0.05903   0.06144
 Alpha virt. eigenvalues --    0.08656   0.08857   0.09679   0.10973   0.11122
 Alpha virt. eigenvalues --    0.11830   0.12064   0.13156   0.13475   0.14276
 Alpha virt. eigenvalues --    0.14638   0.15496   0.15539   0.16880   0.17537

  Beta  occ. eigenvalues --  -19.01048 -18.99907 -10.14292 -10.09327 -10.05472
  Beta  occ. eigenvalues --  -10.03579 -10.02250 -10.01338 -10.00528 -10.00103
  Beta  occ. eigenvalues --   -9.99546  -0.95408  -0.88678  -0.67114  -0.64416
  Beta  occ. eigenvalues --   -0.59324  -0.57652  -0.54066  -0.49933  -0.46427
  Beta  occ. eigenvalues --   -0.41338  -0.38684  -0.37471  -0.36215  -0.33776
  Beta  occ. eigenvalues --   -0.31878  -0.30504  -0.28536  -0.28120  -0.27807
  Beta  occ. eigenvalues --   -0.26417  -0.25174  -0.23753  -0.22695  -0.21056
  Beta  occ. eigenvalues --   -0.18520  -0.17503  -0.14640  -0.13480  -0.11274
  Beta  occ. eigenvalues --   -0.04293
  Beta virt. eigenvalues --    0.08615   0.08954   0.09757   0.10662   0.11089
  Beta virt. eigenvalues --    0.11660   0.11839   0.12119   0.13161   0.13511
  Beta virt. eigenvalues --    0.14301   0.14820   0.15438   0.16167   0.16868

 Mulliken charges and spin densities:
               1          2
     1  C   -0.421458  -0.272345
     2  C   -0.443299   0.499183
     3  C    0.301192  -0.456343
     4  C   -0.737426   0.670395
     5  C    0.177884  -0.288740
     6  C    1.012868   0.218698
     7  C   -1.117244   0.383444
     8  C   -0.406802  -0.172037
     9  O   -0.090582   0.005999
    10  C    0.114751  -0.252542
    11  O   -0.146542   0.015068
    12  H    0.026657   0.092733
    13  H    0.039030   0.078713
    14  H    0.092222   0.010586
    15  H    0.101366  -0.000942
    16  H    0.095777   0.008156
    17  H    0.088903   0.027012
    18  H    0.063167  -0.021694
    19  H    0.131241   0.011812
    20  H    0.132556  -0.006626
    21  H    0.051927   0.124835
    22  H    0.069617   0.014322
    23  H   -0.135804   0.310312
 Sum of Mulliken charges =  -1.00000   1.00000

 Dipole moment (field-independent basis, Debye):
    X=              0.8980    Y=             -0.5480    Z=              2.3472  Tot=              2.5722
 Quadrupole moment (field-independent basis, Debye-Ang):
   XX=           -107.6048   YY=            -84.4166   ZZ=            -80.7839
   XY=              0.8132   XZ=              3.9449   YZ=             -0.5064

 Summary of Natural Population Analysis:

                                       Natural Population
                Natural  -----------------------------------------------
    Atom  No    Charge         Core      Valence    Rydberg      Total
 -----------------------------------------------------------------------
      C    1   -0.30308      0.99966     2.29797    0.00545     3.30308
      C    2   -0.05149      0.99957     2.04328    0.00864     3.05149
      C    3   -0.11973      0.99952     2.10970    0.01051     3.11973
      C    4   -0.10980      0.99948     2.09965    0.01068     3.10980
      C    5    0.18718      0.99934     1.79812    0.01535     2.81282
      C    6   -0.04473      0.99949     2.03498    0.01025     3.04473
      C    7   -0.12989      0.99953     2.12145    0.00890     3.12989
      C    8   -0.01734      0.99954     2.00365    0.01415     3.01734
      O    9   -0.29846      0.99989     3.28953    0.00904     4.29846
      C   10    0.14596      0.99963     1.83470    0.01971     2.85404
      O   11   -0.29018      0.99986     3.28110    0.00921     4.29018
      H   12    0.09964      0.00000     0.39931    0.00104     0.40036
      H   13    0.09485      0.00000     0.40335    0.00180     0.40515
      H   14    0.09290      0.00000     0.40585    0.00125     0.40710
      H   15    0.07692      0.00000     0.42171    0.00138     0.42308
      H   16    0.09806      0.00000     0.40062    0.00132     0.40194
      H   17    0.09124      0.00000     0.40656    0.00220     0.40876
      H   18    0.07991      0.00000     0.41905    0.00103     0.42009
      H   19    0.09347      0.00000     0.40564    0.00089     0.40653
      H   20    0.07568      0.00000     0.42292    0.00140     0.42432
      H   21    0.09043      0.00000     0.40821    0.00136     0.40957
      H   22    0.05810      0.00000     0.43992    0.00197     0.44190
      H   23    0.08035      0.00000     0.41782    0.00183     0.41965
 =======================================================================
   * Total *    0.00000     10.99552    29.86511    0.13937    41.00000

 Normal termination of Gaussian 16 at Tue Dec  8 19:23:51 2020.
