 Gaussian 16, Revision A.03,

 -----------------------------------------------------------
 # opt freq B3LYP/6-31G(d) empiricaldispersion=gd3bj scf=xqc
 -----------------------------------------------------------

 -------------------------------
 CID_123725669_JID_3328_neutraal
 -------------------------------
 Symbolic Z-matrix:
 Charge =  0 Multiplicity = 1

 SCF Done:  E(RB3LYP) =  -556.783531086     A.U. after   14 cycles
 SCF Done:  E(RB3LYP) =  -556.784889224     A.U. after   13 cycles
 SCF Done:  E(RB3LYP) =  -556.785763551     A.U. after   13 cycles
 SCF Done:  E(RB3LYP) =  -556.786992706     A.U. after   12 cycles
 SCF Done:  E(RB3LYP) =  -556.789355430     A.U. after   13 cycles
 SCF Done:  E(RB3LYP) =  -556.789763065     A.U. after   11 cycles
 SCF Done:  E(RB3LYP) =  -556.789923987     A.U. after   11 cycles
 SCF Done:  E(RB3LYP) =  -556.790102330     A.U. after   11 cycles
 SCF Done:  E(RB3LYP) =  -556.790706118     A.U. after   14 cycles
 SCF Done:  E(RB3LYP) =  -556.791200548     A.U. after   12 cycles
 SCF Done:  E(RB3LYP) =  -556.793862132     A.U. after   10 cycles
 SCF Done:  E(RB3LYP) =  -556.793863827     A.U. after   10 cycles
 SCF Done:  E(RB3LYP) =  -556.793864813     A.U. after    8 cycles
 SCF Done:  E(RB3LYP) =  -556.793865149     A.U. after    7 cycles
 SCF Done:  E(RB3LYP) =  -556.793865176     A.U. after    7 cycles
 SCF Done:  E(RB3LYP) =  -556.793865192     A.U. after    6 cycles
 Optimization completed.
    -- Stationary point found.
 Normal termination of Gaussian 16 at Wed Dec  9 23:25:44 2020.

 --------------------------------------------------------------------
 #N Geom=AllCheck Guess=TCheck SCRF=Check GenChk RB3LYP/6-31G(d) Freq
 --------------------------------------------------------------------

 Structure from the checkpoint file:  "JID_3328.chk"
 -------------------------------
 CID_123725669_JID_3328_neutraal
 -------------------------------
 Charge =  0 Multiplicity = 1

 SCF Done:  E(RB3LYP) =  -556.793865192     A.U. after    1 cycles

  Exact polarizability: 130.315 -11.948 112.196  -3.200  -3.599 111.173
 Approx polarizability: 166.115 -24.309 166.481  -9.625  -4.776 180.611

                      1                      2                      3
                      A                      A                      A
 Frequencies --     16.9506                59.0743                65.3503
 Red. masses --      3.4012                 3.9656                 2.6882
 Frc consts  --      0.0006                 0.0082                 0.0068
 IR Inten    --      1.0130                 2.5007                 0.3858

                      4                      5                      6
                      A                      A                      A
 Frequencies --     90.6235               113.4772               130.3112
 Red. masses --      3.7964                 2.1474                 2.8391
 Frc consts  --      0.0184                 0.0163                 0.0284
 IR Inten    --      0.2610                 0.3089                 1.2007

                      7                      8                      9
                      A                      A                      A
 Frequencies --    156.2312               187.3905               194.1607
 Red. masses --      2.5547                 2.0317                 1.8671
 Frc consts  --      0.0367                 0.0420                 0.0415
 IR Inten    --      1.4109                 0.4689                 0.1479

                     10                     11                     12
                      A                      A                      A
 Frequencies --    228.7386               241.2687               304.1310
 Red. masses --      1.2106                 3.3377                 1.8007
 Frc consts  --      0.0373                 0.1145                 0.0981
 IR Inten    --      0.7611                 1.9776                 0.5976

                     13                     14                     15
                      A                      A                      A
 Frequencies --    346.8602               382.5441               430.8302
 Red. masses --      2.1346                 2.1498                 2.0488
 Frc consts  --      0.1513                 0.1854                 0.2241
 IR Inten    --      1.3423                 0.2740                 1.0002

                     16                     17                     18
                      A                      A                      A
 Frequencies --    450.5007               481.1008               547.5775
 Red. masses --      2.3643                 2.7288                 2.5568
 Frc consts  --      0.2827                 0.3721                 0.4517
 IR Inten    --      6.7582                 4.3017                 9.9008

                     19                     20                     21
                      A                      A                      A
 Frequencies --    628.4153               662.6369               679.4836
 Red. masses --      3.7703                 3.1811                 3.6792
 Frc consts  --      0.8772                 0.8230                 1.0008
 IR Inten    --      4.8834                 0.5769                20.0626

                     22                     23                     24
                      A                      A                      A
 Frequencies --    720.6141               720.9715               789.1835
 Red. masses --      1.2421                 2.0662                 1.1496
 Frc consts  --      0.3800                 0.6328                 0.4219
 IR Inten    --     20.8963                 3.8162                 4.7231

                     25                     26                     27
                      A                      A                      A
 Frequencies --    797.2087               814.2237               843.8789
 Red. masses --      1.3279                 1.3849                 1.3211
 Frc consts  --      0.4973                 0.5410                 0.5543
 IR Inten    --     22.6132                 1.8755                 2.9135

                     28                     29                     30
                      A                      A                      A
 Frequencies --    883.4840               897.4572               923.6086
 Red. masses --      2.5395                 2.0733                 4.9394
 Frc consts  --      1.1679                 0.9839                 2.4826
 IR Inten    --      0.6237                 1.4882                15.8002

                     31                     32                     33
                      A                      A                      A
 Frequencies --    931.2071               942.9076               976.4070
 Red. masses --      1.5252                 2.1061                 1.9511
 Frc consts  --      0.7793                 1.1032                 1.0960
 IR Inten    --      1.8847                 2.0620                 1.6329

                     34                     35                     36
                      A                      A                      A
 Frequencies --   1044.4933              1058.9426              1080.9215
 Red. masses --      2.2779                 2.9804                 1.9909
 Frc consts  --      1.4642                 1.9691                 1.3705
 IR Inten    --     19.4895                19.7633                 7.5549

                     37                     38                     39
                      A                      A                      A
 Frequencies --   1092.2262              1107.2924              1108.2675
 Red. masses --      2.0501                 1.7991                 1.4561
 Frc consts  --      1.4410                 1.2997                 1.0537
 IR Inten    --      5.0821                22.0811                11.8520

                     40                     41                     42
                      A                      A                      A
 Frequencies --   1130.8102              1151.3714              1155.0186
 Red. masses --      1.9888                 2.1642                 1.7461
 Frc consts  --      1.4984                 1.6904                 1.3724
 IR Inten    --     28.2682                10.8685                 9.8783

                     43                     44                     45
                      A                      A                      A
 Frequencies --   1193.2432              1251.0608              1266.8376
 Red. masses --      1.6736                 1.8164                 1.7405
 Frc consts  --      1.4040                 1.6750                 1.6458
 IR Inten    --     23.1825                14.0220                27.6793

                     46                     47                     48
                      A                      A                      A
 Frequencies --   1274.7168              1300.4923              1320.8210
 Red. masses --      1.8339                 1.2131                 1.2369
 Frc consts  --      1.7557                 1.2088                 1.2714
 IR Inten    --     15.4754                 2.8431                 1.1790

                     49                     50                     51
                      A                      A                      A
 Frequencies --   1328.2871              1361.2398              1385.4966
 Red. masses --      1.7578                 1.5279                 1.5523
 Frc consts  --      1.8273                 1.6680                 1.7556
 IR Inten    --     14.5424                 4.2880                23.4672

                     52                     53                     54
                      A                      A                      A
 Frequencies --   1395.8793              1397.8539              1407.3771
 Red. masses --      2.7252                 1.4797                 1.5736
 Frc consts  --      3.1285                 1.7035                 1.8364
 IR Inten    --      6.6636                10.3659                13.0428

                     55                     56                     57
                      A                      A                      A
 Frequencies --   1415.1563              1430.9090              1432.5730
 Red. masses --      1.3365                 1.4987                 1.3873
 Frc consts  --      1.5770                 1.8079                 1.6775
 IR Inten    --     28.4586                21.7959                 6.4947

                     58                     59                     60
                      A                      A                      A
 Frequencies --   1439.4578              1443.0138              1454.4019
 Red. masses --      1.5140                 1.2601                 1.4013
 Frc consts  --      1.8483                 1.5459                 1.7464
 IR Inten    --     11.2603                14.2767                13.0520

                     61                     62                     63
                      A                      A                      A
 Frequencies --   1494.5066              1508.5202              1512.2707
 Red. masses --      1.0903                 1.1487                 1.2271
 Frc consts  --      1.4348                 1.5402                 1.6534
 IR Inten    --      4.8112                10.7193                13.2214

                     64                     65                     66
                      A                      A                      A
 Frequencies --   1520.2006              1524.5340              1525.1342
 Red. masses --      1.0633                 1.0614                 1.0478
 Frc consts  --      1.4479                 1.4534                 1.4360
 IR Inten    --      4.9363                 0.3746                 4.8171

                     67                     68                     69
                      A                      A                      A
 Frequencies --   1534.8892              1538.8632              1544.4732
 Red. masses --      1.0949                 1.0709                 1.1143
 Frc consts  --      1.5198                 1.4942                 1.5661
 IR Inten    --      6.4967                 6.0329                 3.0789

                     70                     71                     72
                      A                      A                      A
 Frequencies --   1548.6294              1553.1955              2940.4128
 Red. masses --      2.5741                 2.7301                 1.0724
 Frc consts  --      3.6373                 3.8804                 5.4631
 IR Inten    --      6.7551                33.8190                74.1510

                     73                     74                     75
                      A                      A                      A
 Frequencies --   2990.5523              3019.1695              3035.8741
 Red. masses --      1.0715                 1.0699                 1.0852
 Frc consts  --      5.6463                 5.7462                 5.8928
 IR Inten    --     53.2311                60.2843                18.1729

                     76                     77                     78
                      A                      A                      A
 Frequencies --   3048.6817              3049.2264              3053.0216
 Red. masses --      1.0494                 1.0527                 1.0685
 Frc consts  --      5.7469                 5.7666                 5.8678
 IR Inten    --     40.1932                16.5789                62.8402

                     79                     80                     81
                      A                      A                      A
 Frequencies --   3058.1282              3077.7457              3080.6335
 Red. masses --      1.0432                 1.0966                 1.0973
 Frc consts  --      5.7482                 6.1201                 6.1356
 IR Inten    --     18.9378                23.9915                23.6889

                     82                     83                     84
                      A                      A                      A
 Frequencies --   3090.4020              3111.9466              3112.8243
 Red. masses --      1.0915                 1.1007                 1.1002
 Frc consts  --      6.1419                 6.2802                 6.2809
 IR Inten    --     20.7836                63.6968                25.7693

                     85                     86                     87
                      A                      A                      A
 Frequencies --   3127.5816              3132.7790              3186.8490
 Red. masses --      1.0961                 1.1015                 1.0950
 Frc consts  --      6.3170                 6.3694                 6.5525
 IR Inten    --     24.2347                37.5270                 5.9326

                     88                     89                     90
                      A                      A                      A
 Frequencies --   3259.4438              3261.5478              3287.8725
 Red. masses --      1.0917                 1.0955                 1.1041
 Frc consts  --      6.8332                 6.8662                 7.0322
 IR Inten    --      9.2389                 0.2424                 2.9644

 - Thermochemistry -
 -------------------
 Temperature   298.150 Kelvin.  Pressure   1.00000 Atm.
 Atom     1 has atomic number  6 and mass  12.00000

 Molecular mass:   181.15790 amu.
 Principal axes and moments of inertia in atomic units:
                           1         2         3
     Eigenvalues --  1129.731294041.910794302.64605
           X            1.00000   0.00271  -0.00056
           Y           -0.00272   0.99993  -0.01130
           Z            0.00052   0.01130   0.99994
 This molecule is an asymmetric top.
 Rotational symmetry number  1.
 Warning -- assumption of classical behavior for rotation
           may cause significant error
 Rotational temperatures (Kelvin)      0.07667     0.02143     0.02013
 Rotational constants (GHZ):           1.59750     0.44651     0.41945
 Zero-point vibrational energy     758413.8 (Joules/Mol)
                                  181.26524 (Kcal/Mol)
 Warning -- explicit consideration of  18 degrees of freedom as
           vibrations may cause significant error
 Vibrational temperatures:     24.39    84.99    94.02   130.39   163.27
          (Kelvin)            187.49   224.78   269.61   279.35   329.10
                              347.13   437.58   499.05   550.40   619.87
                              648.17   692.20   787.84   904.15   953.39
                              977.63  1036.80  1037.32  1135.46  1147.01
                             1171.49  1214.15  1271.14  1291.24  1328.87
                             1339.80  1356.63  1404.83  1502.79  1523.58
                             1555.20  1571.47  1593.15  1594.55  1626.98
                             1656.57  1661.81  1716.81  1800.00  1822.70
                             1834.03  1871.12  1900.37  1911.11  1958.52
                             1993.42  2008.36  2011.20  2024.90  2036.09
                             2058.76  2061.15  2071.06  2076.18  2092.56
                             2150.26  2170.42  2175.82  2187.23  2193.46
                             2194.33  2208.36  2214.08  2222.15  2228.13
                             2234.70  4230.60  4302.74  4343.91  4367.95
                             4386.37  4387.16  4392.62  4399.96  4428.19
                             4432.34  4446.40  4477.40  4478.66  4499.89
                             4507.37  4585.16  4689.61  4692.64  4730.52

 Zero-point correction=                           0.288865 (Hartree/Particle)
 Thermal correction to Energy=                    0.302880
 Thermal correction to Enthalpy=                  0.303824
 Thermal correction to Gibbs Free Energy=         0.246859
 Sum of electronic and zero-point Energies=           -556.505001
 Sum of electronic and thermal Energies=              -556.490985
 Sum of electronic and thermal Enthalpies=            -556.490041
 Sum of electronic and thermal Free Energies=         -556.547006

                     E (Thermal)             CV                S
                      KCal/Mol        Cal/Mol-Kelvin    Cal/Mol-Kelvin
 Total                  190.060             51.997            119.893
 Electronic               0.000              0.000              0.000
 Translational            0.889              2.981             41.489
 Rotational               0.889              2.981             31.352
 Vibrational            188.283             46.036             47.051
 Vibration     1          0.593              1.986              6.963
 Vibration     2          0.596              1.974              4.488
 Vibration     3          0.597              1.971              4.289
 Vibration     4          0.602              1.956              3.647
 Vibration     5          0.607              1.938              3.209
 Vibration     6          0.612              1.923              2.941
 Vibration     7          0.620              1.896              2.595
 Vibration     8          0.632              1.857              2.253
 Vibration     9          0.635              1.848              2.188
 Vibration    10          0.651              1.797              1.889
 Vibration    11          0.658              1.777              1.794
 Vibration    12          0.695              1.666              1.394
 Vibration    13          0.725              1.582              1.180
 Vibration    14          0.752              1.507              1.029
 Vibration    15          0.792              1.403              0.856
 Vibration    16          0.809              1.360              0.794
 Vibration    17          0.837              1.292              0.707
 Vibration    18          0.903              1.145              0.549

 Optimization completed.
    -- Stationary point found.
 Normal termination of Gaussian 16 at Wed Dec  9 23:34:45 2020.

 ----------------------------------------------------------------------
 # B3LYP/6-311++G(d,p) empiricaldispersion=gd3bj scf=xqc pop=npa geom=c
 heck
 ----------------------------------------------------------------------

 ---------------------------------------
 CID_123725669_JID_3328_Energie_neutraal
 ---------------------------------------
 Structure from the checkpoint file:  "JID_3328.chk"
 Charge =  0 Multiplicity = 1

 SCF Done:  E(RB3LYP) =  -556.947067463     A.U. after   13 cycles
 Normal termination of Gaussian 16 at Wed Dec  9 23:38:02 2020.

 ----------------------------------------------------------------------
 # B3LYP/6-311++G(d,p) empiricaldispersion=gd3bj scf=xqc pop=npa geom=c
 heck
 ----------------------------------------------------------------------

 -------------------------------------
 CID_123725669_JID_3328_Energie_kation
 -------------------------------------
 Structure from the checkpoint file:  "JID_3328.chk"
 Charge =  1 Multiplicity = 2

 SCF Done:  E(UB3LYP) =  -556.669628823     A.U. after   21 cycles
 Normal termination of Gaussian 16 at Wed Dec  9 23:45:00 2020.
 Gaussian 16:  ES64L-G16RevA.03 25-Dec-2016

 ----------------------------------------------------------------------
 # B3LYP/6-311++G(d,p) empiricaldispersion=gd3bj scf=xqc pop=npa geom=c
 heck
 ----------------------------------------------------------------------

 ------------------------------------
 CID_123725669_JID_3328_Energie_anion
 ------------------------------------
 Structure from the checkpoint file:  "JID_3328.chk"
 Charge = -1 Multiplicity = 2

                         Standard orientation:
 ---------------------------------------------------------------------
 Center     Atomic      Atomic             Coordinates (Angstroms)
 Number     Number       Type             X           Y           Z
 ---------------------------------------------------------------------
      1          6           0        4.216448   -0.076494    0.046170
      2          6           0        3.152188    0.470135   -0.906402
      3          6           0        1.827128   -0.298465   -0.827222
      4          7           0        1.246113   -0.306400    0.504569
      5          6           0        0.976614    0.986274    1.129065
      6          6           0        0.120884    1.993902    0.350682
      7          6           0        0.407058   -1.439012    0.817407
      8          6           0       -0.770692   -1.767709   -0.125516
      9          7           0       -1.810081   -0.750575   -0.180063
     10          6           0       -2.226420   -0.057685   -1.299850
     11          6           0       -3.229141    0.777721   -0.870581
     12          7           0       -3.442832    0.618909    0.481477
     13          6           0       -2.579308   -0.303775    0.859568
     14          1           0        3.865349   -0.043651    1.082001
     15          1           0        5.146176    0.498616   -0.023107
     16          1           0        4.450042   -1.122384   -0.188457
     17          1           0        2.978252    1.534020   -0.702603
     18          1           0        3.508343    0.416376   -1.943270
     19          1           0        1.134803    0.099395   -1.592782
     20          1           0        2.021557   -1.344930   -1.101382
     21          1           0        0.507388    0.783258    2.098082
     22          1           0        1.942770    1.458630    1.357119
     23          1           0       -0.905105    1.651227    0.213362
     24          1           0        0.090631    2.943501    0.898130
     25          1           0        0.546529    2.200782   -0.637615
     26          1           0        1.027702   -2.350139    0.829741
     27          1           0        0.025314   -1.312082    1.836256
     28          1           0       -0.404745   -1.907104   -1.145743
     29          1           0       -1.213938   -2.720507    0.190938
     30          1           0       -1.770012   -0.223078   -2.264237
     31          1           0       -3.805172    1.484315   -1.452269
     32          1           0       -2.466843   -0.689143    1.864026
 ---------------------------------------------------------------------

 SCF Done:  E(UB3LYP) =  -556.935246911     A.U. after   32 cycles

 The electronic state is 2-A.
 Alpha  occ. eigenvalues --  -14.27342 -14.19972 -14.19866 -10.12315 -10.11237
 Alpha  occ. eigenvalues --  -10.10148 -10.10048 -10.09693 -10.08945 -10.08734
 Alpha  occ. eigenvalues --  -10.06613 -10.05662 -10.05654  -0.92238  -0.82598
 Alpha  occ. eigenvalues --   -0.78847  -0.68265  -0.67002  -0.64814  -0.62502
 Alpha  occ. eigenvalues --   -0.58423  -0.54912  -0.51442  -0.50135  -0.47899
 Alpha  occ. eigenvalues --   -0.45695  -0.43013  -0.39053  -0.38677  -0.37292
 Alpha  occ. eigenvalues --   -0.35448  -0.34780  -0.33970  -0.33216  -0.32081
 Alpha  occ. eigenvalues --   -0.31605  -0.30945  -0.29856  -0.28805  -0.28064
 Alpha  occ. eigenvalues --   -0.27037  -0.26016  -0.24742  -0.24494  -0.23523
 Alpha  occ. eigenvalues --   -0.23191  -0.18082  -0.17933  -0.13813  -0.10412
 Alpha  occ. eigenvalues --    0.04362
 Alpha virt. eigenvalues --    0.06605   0.07092   0.07541   0.08915   0.08981
 Alpha virt. eigenvalues --    0.09190   0.09751   0.10427   0.10983   0.11261
 Alpha virt. eigenvalues --    0.11898   0.12113   0.12835   0.13071   0.13486

  Beta  occ. eigenvalues --  -14.27343 -14.19974 -14.19863 -10.12293 -10.11198
  Beta  occ. eigenvalues --  -10.10123 -10.10027 -10.09682 -10.08915 -10.08732
  Beta  occ. eigenvalues --  -10.06595 -10.05647 -10.05637  -0.92225  -0.82583
  Beta  occ. eigenvalues --   -0.78829  -0.68227  -0.66970  -0.64786  -0.62461
  Beta  occ. eigenvalues --   -0.58368  -0.54867  -0.51391  -0.50112  -0.47845
  Beta  occ. eigenvalues --   -0.45641  -0.42952  -0.39009  -0.38647  -0.37251
  Beta  occ. eigenvalues --   -0.35409  -0.34744  -0.33933  -0.33193  -0.32053
  Beta  occ. eigenvalues --   -0.31585  -0.30904  -0.29834  -0.28759  -0.28026
  Beta  occ. eigenvalues --   -0.26990  -0.25995  -0.24708  -0.24466  -0.23491
  Beta  occ. eigenvalues --   -0.23148  -0.18055  -0.17923  -0.13767  -0.10393
  Beta virt. eigenvalues --    0.06645   0.07592   0.07701   0.07963   0.09037
  Beta virt. eigenvalues --    0.09457   0.09743   0.10329   0.10792   0.11318
  Beta virt. eigenvalues --    0.11503   0.12250   0.12597   0.13088   0.13300

 Mulliken charges and spin densities:
               1          2
     1  C    0.632733  -1.124483
     2  C    0.405090  -0.636067
     3  C   -0.089558  -0.305011
     4  N    0.104322   0.145405
     5  C   -0.108941  -0.184733
     6  C   -0.395421  -0.067491
     7  C    1.049718  -1.225867
     8  C   -0.306658  -0.069844
     9  N    0.133230  -0.023938
    10  C    0.030176  -0.002269
    11  C    0.440382  -0.762910
    12  N   -0.154418   0.035013
    13  C    0.223242  -0.469549
    14  H   -0.047687   0.193537
    15  H   -0.138459   0.266802
    16  H   -0.092044   0.224952
    17  H    0.084398   0.035622
    18  H   -0.432183   0.594903
    19  H    0.002103   0.102763
    20  H   -0.330993   0.498455
    21  H    0.115408  -0.000790
    22  H    0.028182   0.110787
    23  H    0.151219  -0.068729
    24  H    0.023875   0.104035
    25  H    0.050845   0.075291
    26  H   -0.314835   0.493819
    27  H   -0.156603   0.302768
    28  H   -0.372999   0.559188
    29  H   -1.007514   1.238426
    30  H   -0.548729   0.704944
    31  H    0.102929   0.029290
    32  H   -0.080809   0.225679
 Sum of Mulliken charges =  -1.00000   1.00000

 Dipole moment (field-independent basis, Debye):
    X=             -1.0596    Y=              5.3785    Z=              1.8651  Tot=              5.7905
 Quadrupole moment (field-independent basis, Debye-Ang):
   XX=           -153.0766   YY=           -131.0527   ZZ=           -118.4647
   XY=              2.5941   XZ=              8.7198   YZ=             -2.6298

 Summary of Natural Population Analysis:

                                       Natural Population
                Natural  -----------------------------------------------
    Atom  No    Charge         Core      Valence    Rydberg      Total
 -----------------------------------------------------------------------
      C    1   -0.28579      0.99966     2.28138    0.00475     3.28579
      C    2   -0.19490      0.99964     2.18710    0.00816     3.19490
      C    3   -0.08469      0.99960     2.07195    0.01314     3.08469
      N    4   -0.28993      0.99971     2.77563    0.01458     3.78993
      C    5   -0.07822      0.99962     2.06910    0.00950     3.07822
      C    6   -0.29646      0.99965     2.29228    0.00453     3.29646
      C    7   -0.07875      0.99960     2.06597    0.01318     3.07875
      C    8   -0.09264      0.99959     2.08030    0.01275     3.09264
      N    9   -0.20994      0.99966     2.69708    0.01320     3.70994
      C   10   -0.03010      0.99954     2.01814    0.01242     3.03010
      C   11   -0.04303      0.99958     2.03023    0.01322     3.04303
      N   12   -0.25846      0.99973     2.74858    0.01015     3.75846
      C   13    0.10186      0.99962     1.88081    0.01771     2.89814
      H   14    0.09979      0.00000     0.39880    0.00140     0.40021
      H   15    0.09512      0.00000     0.40387    0.00101     0.40488
      H   16    0.09760      0.00000     0.40115    0.00125     0.40240
      H   17    0.09181      0.00000     0.40703    0.00117     0.40819
      H   18    0.09882      0.00000     0.39989    0.00129     0.40118
      H   19    0.08431      0.00000     0.41365    0.00204     0.41569
      H   20    0.09826      0.00000     0.39960    0.00213     0.40174
      H   21    0.09269      0.00000     0.40606    0.00125     0.40731
      H   22    0.08671      0.00000     0.41199    0.00131     0.41329
      H   23    0.10494      0.00000     0.39320    0.00186     0.39506
      H   24    0.09456      0.00000     0.40445    0.00099     0.40544
      H   25    0.09577      0.00000     0.40313    0.00110     0.40423
      H   26    0.09866      0.00000     0.39921    0.00213     0.40134
      H   27    0.09444      0.00000     0.40411    0.00145     0.40556
      H   28    0.10561      0.00000     0.39141    0.00297     0.39439
      H   29    0.10428      0.00000     0.39183    0.00388     0.39572
      H   30    0.10753      0.00000     0.39111    0.00136     0.39247
      H   31    0.09547      0.00000     0.40363    0.00090     0.40453
      H   32    0.09465      0.00000     0.40393    0.00142     0.40535
 =======================================================================
   * Total *    0.00000     12.99521    36.82659    0.17821    50.00000

 Normal termination of Gaussian 16 at Wed Dec  9 23:55:28 2020.
