 Gaussian 16, Revision A.03,

 -----------------------------------------------------------
 # opt freq B3LYP/6-31G(d) empiricaldispersion=gd3bj scf=xqc
 -----------------------------------------------------------

 -------------------------------
 CID_115210540_JID_8881_neutraal
 -------------------------------
 Symbolic Z-matrix:
 Charge =  0 Multiplicity = 1

 SCF Done:  E(RB3LYP) =  -734.932508446     A.U. after   14 cycles
 SCF Done:  E(RB3LYP) =  -734.937679947     A.U. after   12 cycles
 SCF Done:  E(RB3LYP) =  -734.938990523     A.U. after   12 cycles
 SCF Done:  E(RB3LYP) =  -734.938064760     A.U. after   15 cycles
 SCF Done:  E(RB3LYP) =  -734.939816971     A.U. after   12 cycles
 SCF Done:  E(RB3LYP) =  -734.940379614     A.U. after   12 cycles
 SCF Done:  E(RB3LYP) =  -734.940472360     A.U. after   11 cycles
 SCF Done:  E(RB3LYP) =  -734.940504463     A.U. after    9 cycles
 SCF Done:  E(RB3LYP) =  -734.940526180     A.U. after   10 cycles
 SCF Done:  E(RB3LYP) =  -734.940533284     A.U. after   10 cycles
 SCF Done:  E(RB3LYP) =  -734.941923686     A.U. after   10 cycles
 SCF Done:  E(RB3LYP) =  -734.941939973     A.U. after   10 cycles
 SCF Done:  E(RB3LYP) =  -734.941941634     A.U. after    8 cycles
 SCF Done:  E(RB3LYP) =  -734.941941910     A.U. after    9 cycles
 SCF Done:  E(RB3LYP) =  -734.941942596     A.U. after    9 cycles
 SCF Done:  E(RB3LYP) =  -734.941942685     A.U. after    7 cycles
 Optimization completed.
    -- Stationary point found.
 Normal termination of Gaussian 16 at Fri Dec 11 22:52:36 2020.

 --------------------------------------------------------------------
 #N Geom=AllCheck Guess=TCheck SCRF=Check GenChk RB3LYP/6-31G(d) Freq
 --------------------------------------------------------------------

 Structure from the checkpoint file:  "JID_8881.chk"
 -------------------------------
 CID_115210540_JID_8881_neutraal
 -------------------------------
 Charge =  0 Multiplicity = 1

 SCF Done:  E(RB3LYP) =  -734.941942685     A.U. after    1 cycles

  Exact polarizability: 231.418 -26.285 152.840   4.809   9.743 158.184
 Approx polarizability: 286.930 -49.058 220.203  15.045  18.705 269.085

                      1                      2                      3
                      A                      A                      A
 Frequencies --     20.6971                23.4620                33.7744
 Red. masses --      3.8368                 3.0401                 3.0652
 Frc consts  --      0.0010                 0.0010                 0.0021
 IR Inten    --      0.1461                 0.2393                 0.1653

                      4                      5                      6
                      A                      A                      A
 Frequencies --     56.5122                58.5356                73.7480
 Red. masses --      3.8417                 2.7653                 2.8635
 Frc consts  --      0.0072                 0.0056                 0.0092
 IR Inten    --      0.3499                 0.8564                 1.0066

                      7                      8                      9
                      A                      A                      A
 Frequencies --     82.6836               131.5073               151.4846
 Red. masses --      2.2422                 3.5933                 3.0008
 Frc consts  --      0.0090                 0.0366                 0.0406
 IR Inten    --      0.1798                 0.6648                 0.1716

                     10                     11                     12
                      A                      A                      A
 Frequencies --    195.8772               204.4236               222.0921
 Red. masses --      2.7692                 3.5115                 1.0824
 Frc consts  --      0.0626                 0.0865                 0.0315
 IR Inten    --      0.1227                 0.0930                 0.0419

                     13                     14                     15
                      A                      A                      A
 Frequencies --    261.7214               268.4822               286.4469
 Red. masses --      2.3965                 1.4522                 2.3289
 Frc consts  --      0.0967                 0.0617                 0.1126
 IR Inten    --      3.9611                 0.3356                 2.2790

                     16                     17                     18
                      A                      A                      A
 Frequencies --    306.9775               316.5301               333.6352
 Red. masses --      2.0724                 2.6717                 2.5333
 Frc consts  --      0.1151                 0.1577                 0.1661
 IR Inten    --      0.2249                 0.1845                 0.5730

                     19                     20                     21
                      A                      A                      A
 Frequencies --    397.7757               410.9666               422.7174
 Red. masses --      2.3902                 3.2034                 3.2083
 Frc consts  --      0.2228                 0.3188                 0.3378
 IR Inten    --      0.2382                 5.0234                 2.3026

                     22                     23                     24
                      A                      A                      A
 Frequencies --    435.7964               468.5475               508.4920
 Red. masses --      2.2654                 2.5722                 2.4115
 Frc consts  --      0.2535                 0.3327                 0.3674
 IR Inten    --     13.3405                 1.9931                 0.9416

                     25                     26                     27
                      A                      A                      A
 Frequencies --    535.0527               570.6586               578.2260
 Red. masses --      2.4757                 2.2380                 2.0556
 Frc consts  --      0.4176                 0.4294                 0.4049
 IR Inten    --     98.8945                15.9951                49.2823

                     28                     29                     30
                      A                      A                      A
 Frequencies --    622.1304               650.6798               661.5422
 Red. masses --      1.8304                 2.8334                 5.1166
 Frc consts  --      0.4174                 0.7068                 1.3193
 IR Inten    --     35.7454                16.7025                 5.2706

                     31                     32                     33
                      A                      A                      A
 Frequencies --    731.4314               744.8372               788.3636
 Red. masses --      2.4968                 4.0008                 1.5337
 Frc consts  --      0.7870                 1.3077                 0.5616
 IR Inten    --      6.7213                 5.4029                 2.7361

                     34                     35                     36
                      A                      A                      A
 Frequencies --    796.9961               821.9764               826.3208
 Red. masses --      1.9077                 1.2675                 2.3502
 Frc consts  --      0.7140                 0.5046                 0.9455
 IR Inten    --      1.5527                 1.9716                 1.2929

                     37                     38                     39
                      A                      A                      A
 Frequencies --    833.4109               860.0338               869.8031
 Red. masses --      1.8258                 1.9905                 2.0543
 Frc consts  --      0.7472                 0.8675                 0.9157
 IR Inten    --     42.5348                59.2986                 4.8002

                     40                     41                     42
                      A                      A                      A
 Frequencies --    874.0940               917.5837               931.8980
 Red. masses --      2.4238                 1.9789                 2.5327
 Frc consts  --      1.0911                 0.9817                 1.2959
 IR Inten    --      1.8090                13.5688                 8.3031

                     43                     44                     45
                      A                      A                      A
 Frequencies --    941.8294               943.8977               962.5355
 Red. masses --      1.3197                 1.3209                 2.1689
 Frc consts  --      0.6897                 0.6934                 1.1839
 IR Inten    --      0.0348                 0.0215                 0.2324

                     46                     47                     48
                      A                      A                      A
 Frequencies --    970.6884               975.9493               995.1083
 Red. masses --      1.9418                 1.4015                 1.4614
 Frc consts  --      1.0780                 0.7865                 0.8526
 IR Inten    --      1.7725                 2.0365                 0.6783

                     49                     50                     51
                      A                      A                      A
 Frequencies --   1007.5031              1032.0642              1036.6790
 Red. masses --      1.5380                 2.6522                 1.8386
 Frc consts  --      0.9198                 1.6645                 1.1642
 IR Inten    --      0.9718                 0.9025                 7.4042

                     52                     53                     54
                      A                      A                      A
 Frequencies --   1043.8685              1055.5170              1088.8545
 Red. masses --      2.1763                 1.9147                 1.8751
 Frc consts  --      1.3972                 1.2568                 1.3098
 IR Inten    --      6.2495                 7.7461                15.0330

                     55                     56                     57
                      A                      A                      A
 Frequencies --   1114.1661              1122.2997              1141.7003
 Red. masses --      2.8597                 1.9369                 2.1095
 Frc consts  --      2.0916                 1.4374                 1.6200
 IR Inten    --      2.4904                 2.0185                 5.1912

                     58                     59                     60
                      A                      A                      A
 Frequencies --   1148.4750              1151.9979              1166.3426
 Red. masses --      2.1793                 2.0070                 1.7850
 Frc consts  --      1.6936                 1.5693                 1.4307
 IR Inten    --      3.4782                20.7870                 1.3142

                     61                     62                     63
                      A                      A                      A
 Frequencies --   1191.1035              1199.7665              1222.1657
 Red. masses --      1.7413                 1.2126                 1.1390
 Frc consts  --      1.4556                 1.0284                 1.0024
 IR Inten    --      3.2542                 2.9830                21.7018

                     64                     65                     66
                      A                      A                      A
 Frequencies --   1229.3974              1248.1785              1260.1617
 Red. masses --      1.3937                 2.0209                 1.2924
 Frc consts  --      1.2411                 1.8550                 1.2092
 IR Inten    --      5.0726                 0.4661                 3.0446

                     67                     68                     69
                      A                      A                      A
 Frequencies --   1274.2899              1287.4342              1298.2456
 Red. masses --      1.3260                 1.4448                 1.6764
 Frc consts  --      1.2686                 1.4109                 1.6647
 IR Inten    --      3.1185                 9.6020                40.2009

                     70                     71                     72
                      A                      A                      A
 Frequencies --   1304.8914              1314.0636              1322.5203
 Red. masses --      1.3189                 1.6758                 1.4508
 Frc consts  --      1.3231                 1.7049                 1.4950
 IR Inten    --     13.8439                59.3026                 9.6232

                     73                     74                     75
                      A                      A                      A
 Frequencies --   1338.7898              1347.9939              1363.4979
 Red. masses --      1.3610                 1.3241                 1.3003
 Frc consts  --      1.4372                 1.4176                 1.4243
 IR Inten    --     36.2097                12.6924                 2.0165

                     76                     77                     78
                      A                      A                      A
 Frequencies --   1369.5614              1377.0974              1385.9138
 Red. masses --      1.8087                 1.2973                 1.5366
 Frc consts  --      1.9989                 1.4495                 1.7390
 IR Inten    --     30.2647                17.3740                12.2047

                     79                     80                     81
                      A                      A                      A
 Frequencies --   1407.2451              1412.0458              1419.1406
 Red. masses --      1.5706                 1.4570                 1.4321
 Frc consts  --      1.8325                 1.7117                 1.6993
 IR Inten    --      6.9267                 3.9677                 9.8049

                     82                     83                     84
                      A                      A                      A
 Frequencies --   1424.2626              1435.2164              1441.2481
 Red. masses --      1.3798                 1.2772                 1.2289
 Frc consts  --      1.6492                 1.5500                 1.5040
 IR Inten    --      2.8513                 4.3666                 0.7582

                     85                     86                     87
                      A                      A                      A
 Frequencies --   1457.1351              1466.3352              1510.2288
 Red. masses --      1.3898                 2.1625                 1.0946
 Frc consts  --      1.7386                 2.7395                 1.4709
 IR Inten    --      3.9970                 6.0407                 4.3855

                     88                     89                     90
                      A                      A                      A
 Frequencies --   1513.4559              1521.5030              1524.9666
 Red. masses --      1.0662                 1.0948                 1.0979
 Frc consts  --      1.4389                 1.4932                 1.5044
 IR Inten    --      0.1581                 5.2248                 2.7640

                     91                     92                     93
                      A                      A                      A
 Frequencies --   1525.6008              1529.1330              1535.2386
 Red. masses --      1.0520                 1.0578                 1.0680
 Frc consts  --      1.4425                 1.4572                 1.4831
 IR Inten    --     11.3726                 0.4806                 6.0559

                     94                     95                     96
                      A                      A                      A
 Frequencies --   1540.9768              1541.7302              1543.6459
 Red. masses --      1.1182                 1.1057                 1.4095
 Frc consts  --      1.5645                 1.5485                 1.9788
 IR Inten    --      4.4221                 2.9277                13.5706

                     97                     98                     99
                      A                      A                      A
 Frequencies --   1556.5188              1573.4807              1639.4812
 Red. masses --      1.1035                 2.6304                 4.3981
 Frc consts  --      1.5752                 3.8370                 6.9651
 IR Inten    --      1.7350               168.0457                 2.5115

                    100                    101                    102
                      A                      A                      A
 Frequencies --   1682.1544              2926.8797              2947.0553
 Red. masses --      5.8775                 1.0740                 1.0746
 Frc consts  --      9.7989                 5.4208                 5.4991
 IR Inten    --     91.5714                95.6333               114.1193

                    103                    104                    105
                      A                      A                      A
 Frequencies --   3016.1304              3030.2116              3032.0784
 Red. masses --      1.0823                 1.0676                 1.0815
 Frc consts  --      5.8011                 5.7757                 5.8581
 IR Inten    --     11.9797                16.7356                35.1303

                    106                    107                    108
                      A                      A                      A
 Frequencies --   3035.9199              3044.3473              3049.0603
 Red. masses --      1.0619                 1.0371                 1.0369
 Frc consts  --      5.7666                 5.6631                 5.6798
 IR Inten    --     28.9921                36.5903                29.0061

                    109                    110                    111
                      A                      A                      A
 Frequencies --   3051.2739              3070.2999              3071.3875
 Red. masses --      1.0612                 1.0660                 1.1010
 Frc consts  --      5.8212                 5.9205                 6.1192
 IR Inten    --     51.2685                42.2592                14.6135

                    112                    113                    114
                      A                      A                      A
 Frequencies --   3073.5831              3080.6396              3090.1391
 Red. masses --      1.0867                 1.1001                 1.0886
 Frc consts  --      6.0484                 6.1514                 6.1244
 IR Inten    --     27.9327                40.4587                36.0887

                    115                    116                    117
                      A                      A                      A
 Frequencies --   3093.1123              3107.6327              3112.5480
 Red. masses --      1.1019                 1.1013                 1.1012
 Frc consts  --      6.2113                 6.2665                 6.2854
 IR Inten    --     45.1682                38.5067                48.9515

                    118                    119                    120
                      A                      A                      A
 Frequencies --   3118.3460              3126.2832              3126.9241
 Red. masses --      1.1016                 1.1020                 1.1026
 Frc consts  --      6.3113                 6.3456                 6.3519
 IR Inten    --     48.0265                42.3184                22.4568

                    121                    122                    123
                      A                      A                      A
 Frequencies --   3164.2663              3172.4561              3187.6834
 Red. masses --      1.0868                 1.0884                 1.0928
 Frc consts  --      6.4113                 6.4543                 6.5426
 IR Inten    --     26.0775                17.5607                23.0190

                    124                    125                    126
                      A                      A                      A
 Frequencies --   3212.7684              3511.7167              3589.9492
 Red. masses --      1.0912                 1.0749                 1.0751
 Frc consts  --      6.6361                 7.8100                 8.1636
 IR Inten    --     17.6668                 1.5942                 6.1089

 - Thermochemistry -
 -------------------
 Temperature   298.150 Kelvin.  Pressure   1.00000 Atm.
 Atom     1 has atomic number  6 and mass  12.00000

 Molecular mass:   246.20960 amu.
 Principal axes and moments of inertia in atomic units:
                           1         2         3
     Eigenvalues --  2244.29767********************
           X            0.99997  -0.00736   0.00099
           Y            0.00734   0.99972   0.02241
           Z           -0.00115  -0.02240   0.99975
 This molecule is an asymmetric top.
 Rotational symmetry number  1.
 Warning -- assumption of classical behavior for rotation
           may cause significant error
 Rotational temperatures (Kelvin)      0.03859     0.00840     0.00763
 Rotational constants (GHZ):           0.80415     0.17497     0.15905
 Zero-point vibrational energy    1051313.6 (Joules/Mol)
                                  251.26998 (Kcal/Mol)
 Warning -- explicit consideration of  27 degrees of freedom as
           vibrations may cause significant error
 Vibrational temperatures:     29.78    33.76    48.59    81.31    84.22
          (Kelvin)            106.11   118.96   189.21   217.95   281.82
                              294.12   319.54   376.56   386.29   412.13
                              441.67   455.42   480.03   572.31   591.29
                              608.20   627.01   674.14   731.61   769.82
                              821.05   831.94   895.11   936.18   951.81
                             1052.37  1071.65  1134.28  1146.70  1182.64
                             1188.89  1199.09  1237.40  1251.45  1257.63
                             1320.20  1340.79  1355.08  1358.06  1384.87
                             1396.60  1404.17  1431.74  1449.57  1484.91
                             1491.55  1501.89  1518.65  1566.62  1603.04
                             1614.74  1642.65  1652.40  1657.47  1678.11
                             1713.73  1726.20  1758.42  1768.83  1795.85
                             1813.09  1833.42  1852.33  1867.89  1877.45
                             1890.64  1902.81  1926.22  1939.46  1961.77
                             1970.49  1981.34  1994.02  2024.71  2031.62
                             2041.83  2049.20  2064.96  2073.63  2096.49
                             2109.73  2172.88  2177.53  2189.10  2194.09
                             2195.00  2200.08  2208.87  2217.12  2218.21
                             2220.96  2239.48  2263.89  2358.85  2420.24
                             4211.13  4240.16  4339.54  4359.80  4362.48
                             4368.01  4380.14  4386.92  4390.10  4417.48
                             4419.04  4422.20  4432.35  4446.02  4450.30
                             4471.19  4478.26  4486.60  4498.02  4498.95
                             4552.67  4564.46  4586.37  4622.46  5052.58
                             5165.14

 Zero-point correction=                           0.400424 (Hartree/Particle)
 Thermal correction to Energy=                    0.418972
 Thermal correction to Enthalpy=                  0.419917
 Thermal correction to Gibbs Free Energy=         0.351304
 Sum of electronic and zero-point Energies=           -734.541518
 Sum of electronic and thermal Energies=              -734.522970
 Sum of electronic and thermal Enthalpies=            -734.522026
 Sum of electronic and thermal Free Energies=         -734.590639

                     E (Thermal)             CV                S
                      KCal/Mol        Cal/Mol-Kelvin    Cal/Mol-Kelvin
 Total                  262.909             71.235            144.408
 Electronic               0.000              0.000              0.000
 Translational            0.889              2.981             42.404
 Rotational               0.889              2.981             33.929
 Vibrational            261.132             65.273             68.076
 Vibration     1          0.593              1.986              6.566
 Vibration     2          0.593              1.985              6.317
 Vibration     3          0.594              1.983              5.594
 Vibration     4          0.596              1.975              4.575
 Vibration     5          0.596              1.974              4.506
 Vibration     6          0.599              1.966              4.051
 Vibration     7          0.600              1.961              3.826
 Vibration     8          0.612              1.922              2.924
 Vibration     9          0.619              1.901              2.653
 Vibration    10          0.636              1.846              2.171
 Vibration    11          0.640              1.834              2.093
 Vibration    12          0.648              1.807              1.942
 Vibration    13          0.669              1.743              1.650
 Vibration    14          0.673              1.731              1.606
 Vibration    15          0.684              1.699              1.495
 Vibration    16          0.697              1.660              1.379
 Vibration    17          0.703              1.642              1.328
 Vibration    18          0.715              1.608              1.242
 Vibration    19          0.764              1.475              0.971
 Vibration    20          0.775              1.446              0.923
 Vibration    21          0.785              1.421              0.883
 Vibration    22          0.796              1.392              0.840
 Vibration    23          0.826              1.320              0.742
 Vibration    24          0.864              1.231              0.637
 Vibration    25          0.890              1.172              0.576
 Vibration    26          0.927              1.095              0.503
 Vibration    27          0.935              1.078              0.489

                           ! Non-Optimized Parameters !
 Normal termination of Gaussian 16 at Fri Dec 11 23:12:19 2020.

 ----------------------------------------------------------------------
 # B3LYP/6-311++G(d,p) empiricaldispersion=gd3bj scf=xqc pop=npa geom=c
 heck
 ----------------------------------------------------------------------

 ---------------------------------------
 CID_115210540_JID_8881_Energie_neutraal
 ---------------------------------------
 Structure from the checkpoint file:  "JID_8881.chk"
 Charge =  0 Multiplicity = 1

 SCF Done:  E(RB3LYP) =  -735.143900488     A.U. after   15 cycles
 Normal termination of Gaussian 16 at Fri Dec 11 23:22:43 2020.

 ----------------------------------------------------------------------
 # B3LYP/6-311++G(d,p) empiricaldispersion=gd3bj scf=xqc pop=npa geom=c
 heck
 ----------------------------------------------------------------------

 -------------------------------------
 CID_115210540_JID_8881_Energie_kation
 -------------------------------------
 Structure from the checkpoint file:  "JID_8881.chk"
 Charge =  1 Multiplicity = 2

 SCF Done:  E(UB3LYP) =  -734.887905149     A.U. after   24 cycles
 Normal termination of Gaussian 16 at Fri Dec 11 23:45:33 2020.
 Gaussian 16:  ES64L-G16RevA.03 25-Dec-2016

 ----------------------------------------------------------------------
 # B3LYP/6-311++G(d,p) empiricaldispersion=gd3bj scf=xqc pop=npa geom=c
 heck
 ----------------------------------------------------------------------

 ------------------------------------
 CID_115210540_JID_8881_Energie_anion
 ------------------------------------
 Structure from the checkpoint file:  "JID_8881.chk"
 Charge = -1 Multiplicity = 2

                         Standard orientation:
 ---------------------------------------------------------------------
 Center     Atomic      Atomic             Coordinates (Angstroms)
 Number     Number       Type             X           Y           Z
 ---------------------------------------------------------------------
      1          6           0       -6.258925    0.361876   -0.155033
      2          6           0       -4.863158   -0.106857    0.264843
      3          6           0       -3.707785    0.537082   -0.532604
      4          6           0       -3.656936    2.064632   -0.357487
      5          6           0       -2.379956   -0.106781   -0.177366
      6          6           0       -1.657311   -0.845422   -1.117448
      7          6           0       -0.437445   -1.446460   -0.810771
      8          6           0        0.107464   -1.330290    0.478468
      9          6           0       -0.613033   -0.583829    1.430167
     10          6           0       -1.826839    0.008066    1.106149
     11          7           0        1.298969   -1.951897    0.851051
     12          6           0        2.324184   -2.288081   -0.128972
     13          6           0        2.956248   -1.114135   -0.895749
     14          6           0        3.773888   -0.142934   -0.034185
     15          6           0        2.922224    0.744643    0.921025
     16          6           0        3.541659    2.140231    0.788226
     17          7           0        3.890378    2.168655   -0.631265
     18          6           0        4.562359    0.892094   -0.889902
     19          1           0       -6.412489    1.426727    0.049807
     20          1           0       -7.036111   -0.191956    0.383512
     21          1           0       -6.420655    0.203115   -1.228643
     22          1           0       -4.713679    0.092009    1.335089
     23          1           0       -4.793561   -1.195473    0.146260
     24          1           0       -3.894530    0.331789   -1.596688
     25          1           0       -3.529743    2.336017    0.697499
     26          1           0       -2.814284    2.488345   -0.913537
     27          1           0       -4.574753    2.542092   -0.716289
     28          1           0       -2.054006   -0.952562   -2.124827
     29          1           0        0.085562   -2.007363   -1.577572
     30          1           0       -0.208826   -0.475589    2.434671
     31          1           0       -2.350304    0.576889    1.870530
     32          1           0        1.676287   -1.584845    1.714841
     33          1           0        3.107396   -2.834684    0.410164
     34          1           0        1.896397   -3.000774   -0.843562
     35          1           0        3.612879   -1.547322   -1.663343
     36          1           0        2.178077   -0.552937   -1.427871
     37          1           0        4.492633   -0.729438    0.553302
     38          1           0        2.929050    0.386082    1.955931
     39          1           0        1.883716    0.777715    0.581269
     40          1           0        2.840874    2.944967    1.034933
     41          1           0        4.418642    2.234249    1.458577
     42          1           0        4.479788    2.962843   -0.869336
     43          1           0        5.623219    0.893267   -0.579429
     44          1           0        4.533167    0.656542   -1.959952
 ---------------------------------------------------------------------

 SCF Done:  E(UB3LYP) =  -735.131733292     A.U. after   32 cycles

 The electronic state is 2-A.
 Alpha  occ. eigenvalues --  -14.22843 -14.19897 -10.12124 -10.11170 -10.09235
 Alpha  occ. eigenvalues --  -10.09194 -10.09110 -10.08270 -10.08214 -10.08183
 Alpha  occ. eigenvalues --  -10.07953 -10.07808 -10.07802 -10.07795 -10.07769
 Alpha  occ. eigenvalues --  -10.07388 -10.07386 -10.06549  -0.84486  -0.82139
 Alpha  occ. eigenvalues --   -0.76350  -0.72018  -0.69612  -0.65963  -0.65605
 Alpha  occ. eigenvalues --   -0.64054  -0.62761  -0.60756  -0.56284  -0.53995
 Alpha  occ. eigenvalues --   -0.52057  -0.50557  -0.49390  -0.47194  -0.46573
 Alpha  occ. eigenvalues --   -0.43778  -0.42058  -0.40898  -0.38428  -0.37772
 Alpha  occ. eigenvalues --   -0.37233  -0.35912  -0.35106  -0.34253  -0.34009
 Alpha  occ. eigenvalues --   -0.33163  -0.32947  -0.32058  -0.31221  -0.30664
 Alpha  occ. eigenvalues --   -0.30188  -0.29807  -0.28164  -0.28001  -0.27626
 Alpha  occ. eigenvalues --   -0.26819  -0.26120  -0.25744  -0.24921  -0.24108
 Alpha  occ. eigenvalues --   -0.23951  -0.23459  -0.22908  -0.22188  -0.19561
 Alpha  occ. eigenvalues --   -0.16447  -0.13171  -0.10905   0.03909
 Alpha virt. eigenvalues --    0.05035   0.06517   0.06578   0.07028   0.07415
 Alpha virt. eigenvalues --    0.07523   0.07585   0.08611   0.08737   0.09050
 Alpha virt. eigenvalues --    0.09242   0.09713   0.09859   0.10514   0.10813

  Beta  occ. eigenvalues --  -14.22834 -14.19880 -10.12125 -10.11155 -10.09216
  Beta  occ. eigenvalues --  -10.09190 -10.09090 -10.08268 -10.08207 -10.08177
  Beta  occ. eigenvalues --  -10.07953 -10.07799 -10.07788 -10.07772 -10.07764
  Beta  occ. eigenvalues --  -10.07382 -10.07373 -10.06533  -0.84466  -0.82112
  Beta  occ. eigenvalues --   -0.76340  -0.72002  -0.69585  -0.65941  -0.65589
  Beta  occ. eigenvalues --   -0.64021  -0.62731  -0.60726  -0.56250  -0.53965
  Beta  occ. eigenvalues --   -0.52032  -0.50524  -0.49329  -0.47171  -0.46534
  Beta  occ. eigenvalues --   -0.43748  -0.41992  -0.40869  -0.38409  -0.37753
  Beta  occ. eigenvalues --   -0.37206  -0.35896  -0.35085  -0.34231  -0.33982
  Beta  occ. eigenvalues --   -0.33130  -0.32927  -0.32033  -0.31196  -0.30641
  Beta  occ. eigenvalues --   -0.30156  -0.29785  -0.28144  -0.27978  -0.27597
  Beta  occ. eigenvalues --   -0.26775  -0.26089  -0.25727  -0.24903  -0.24087
  Beta  occ. eigenvalues --   -0.23918  -0.23443  -0.22882  -0.22155  -0.19549
  Beta  occ. eigenvalues --   -0.16439  -0.13119  -0.10896
  Beta virt. eigenvalues --    0.05461   0.06177   0.06767   0.07171   0.07297
  Beta virt. eigenvalues --    0.07575   0.07769   0.07893   0.08718   0.09001
  Beta virt. eigenvalues --    0.09407   0.09490   0.09941   0.10115   0.10592

 Mulliken charges and spin densities:
               1          2
     1  C    0.442453  -1.070222
     2  C   -0.860402   0.509323
     3  C    0.700247  -0.763284
     4  C   -0.097549  -0.619913
     5  C    0.704468   0.097680
     6  C   -0.367167   0.117256
     7  C   -0.329161   0.210158
     8  C    0.360112  -0.490597
     9  C    0.269576  -0.353043
    10  C   -1.129029   0.586202
    11  N    0.107237   0.005077
    12  C   -0.308295  -0.429313
    13  C   -0.201251  -0.019521
    14  C    0.433103   0.046503
    15  C   -0.372753  -0.064791
    16  C    0.252411  -0.789851
    17  N   -0.254886   0.153988
    18  C    0.409904  -0.975612
    19  H   -0.113548   0.255717
    20  H   -0.112221   0.249910
    21  H   -0.093983   0.223811
    22  H    0.063528   0.065025
    23  H    0.100194   0.054428
    24  H    0.175566  -0.014749
    25  H   -0.004597   0.162105
    26  H    0.103144   0.035735
    27  H    0.003392   0.126729
    28  H   -0.044597   0.198444
    29  H    0.131437   0.006465
    30  H   -0.328324   0.473463
    31  H   -0.092422   0.258351
    32  H    0.176378   0.079303
    33  H   -0.442249   0.621772
    34  H    0.078673   0.064954
    35  H    0.042235   0.089868
    36  H    0.026494   0.137157
    37  H   -0.041317   0.224891
    38  H   -0.342542   0.488308
    39  H    0.692080  -0.510824
    40  H   -0.051956   0.199959
    41  H   -0.362651   0.501279
    42  H    0.059461   0.183425
    43  H   -0.449329   0.584714
    44  H    0.068132   0.089718
 Sum of Mulliken charges =  -1.00000   1.00000

 Dipole moment (field-independent basis, Debye):
    X=             -3.8343    Y=             -1.6158    Z=             -3.1447  Tot=              5.2155
 Quadrupole moment (field-independent basis, Debye-Ang):
   XX=           -245.5442   YY=           -155.8189   ZZ=           -148.7705
   XY=             -1.3315   XZ=             -8.1468   YZ=              3.1556

 Summary of Natural Population Analysis:

                                       Natural Population
                Natural  -----------------------------------------------
    Atom  No    Charge         Core      Valence    Rydberg      Total
 -----------------------------------------------------------------------
      C    1   -0.28535      0.99967     2.28143    0.00425     3.28535
      C    2   -0.18621      0.99962     2.17732    0.00927     3.18621
      C    3   -0.11468      0.99957     2.10429    0.01082     3.11468
      C    4   -0.28297      0.99965     2.27853    0.00479     3.28297
      C    5   -0.03288      0.99949     2.02296    0.01043     3.03288
      C    6   -0.08998      0.99952     2.08222    0.00824     3.08998
      C    7   -0.12945      0.99952     2.12270    0.00722     3.12945
      C    8    0.08730      0.99949     1.90184    0.01138     2.91270
      C    9   -0.11761      0.99953     2.10877    0.00931     3.11761
      C   10   -0.09319      0.99952     2.08447    0.00920     3.09319
      N   11   -0.31401      0.99968     2.80379    0.01054     3.81401
      C   12   -0.08606      0.99961     2.07479    0.01165     3.08606
      C   13   -0.19488      0.99960     2.18667    0.00860     3.19488
      C   14   -0.11700      0.99960     2.10519    0.01222     3.11700
      C   15   -0.19730      0.99962     2.18802    0.00966     3.19730
      C   16   -0.08604      0.99963     2.07573    0.01067     3.08604
      N   17   -0.34272      0.99975     2.83167    0.01130     3.84272
      C   18   -0.08304      0.99962     2.07185    0.01157     3.08304
      H   19    0.09665      0.00000     0.40209    0.00126     0.40335
      H   20    0.09886      0.00000     0.40017    0.00097     0.40114
      H   21    0.09462      0.00000     0.40415    0.00123     0.40538
      H   22    0.09449      0.00000     0.40435    0.00117     0.40551
      H   23    0.09797      0.00000     0.40109    0.00094     0.40203
      H   24    0.09306      0.00000     0.40484    0.00210     0.40694
      H   25    0.09714      0.00000     0.40185    0.00101     0.40286
      H   26    0.10240      0.00000     0.39672    0.00088     0.39760
      H   27    0.09743      0.00000     0.40164    0.00093     0.40257
      H   28    0.09710      0.00000     0.40191    0.00100     0.40290
      H   29    0.10048      0.00000     0.39815    0.00136     0.39952
      H   30    0.10023      0.00000     0.39823    0.00154     0.39977
      H   31    0.09987      0.00000     0.39901    0.00112     0.40013
      H   32    0.18596      0.00000     0.31086    0.00318     0.31404
      H   33    0.09880      0.00000     0.40003    0.00117     0.40120
      H   34    0.09166      0.00000     0.40726    0.00108     0.40834
      H   35    0.09738      0.00000     0.40162    0.00100     0.40262
      H   36    0.10132      0.00000     0.39713    0.00155     0.39868
      H   37    0.09817      0.00000     0.39907    0.00276     0.40183
      H   38    0.09984      0.00000     0.39831    0.00186     0.40016
      H   39    0.10236      0.00000     0.39548    0.00216     0.39764
      H   40    0.09396      0.00000     0.40501    0.00103     0.40604
      H   41    0.07833      0.00000     0.41958    0.00209     0.42167
      H   42    0.17493      0.00000     0.32255    0.00252     0.32507
      H   43    0.08253      0.00000     0.41553    0.00194     0.41747
      H   44    0.09056      0.00000     0.40819    0.00125     0.40944
 =======================================================================
   * Total *   -0.00000     17.99269    49.79706    0.21024    68.00000

 Normal termination of Gaussian 16 at Sat Dec 12 00:16:25 2020.
