 Gaussian 16, Revision A.03,

 -----------------------------------------------------------
 # opt freq B3LYP/6-31G(d) empiricaldispersion=gd3bj scf=xqc
 -----------------------------------------------------------

 -------------------------------
 CID_103572398_JID_4179_neutraal
 -------------------------------
 Symbolic Z-matrix:
 Charge =  0 Multiplicity = 1

 SCF Done:  E(RB3LYP) =  -983.455083285     A.U. after   16 cycles
 SCF Done:  E(RB3LYP) =  -983.458596273     A.U. after   12 cycles
 SCF Done:  E(RB3LYP) =  -983.459160964     A.U. after   12 cycles
 SCF Done:  E(RB3LYP) =  -983.459296139     A.U. after   12 cycles
 SCF Done:  E(RB3LYP) =  -983.459351767     A.U. after   11 cycles
 SCF Done:  E(RB3LYP) =  -983.459380429     A.U. after   10 cycles
 SCF Done:  E(RB3LYP) =  -983.459401420     A.U. after   11 cycles
 SCF Done:  E(RB3LYP) =  -983.459408112     A.U. after   10 cycles
 SCF Done:  E(RB3LYP) =  -983.459414091     A.U. after   10 cycles
 SCF Done:  E(RB3LYP) =  -983.459419469     A.U. after   10 cycles
 SCF Done:  E(RB3LYP) =  -983.459419862     A.U. after    8 cycles
 SCF Done:  E(RB3LYP) =  -983.459419975     A.U. after    8 cycles
 SCF Done:  E(RB3LYP) =  -983.459420033     A.U. after    7 cycles
 Optimization completed.
    -- Stationary point found.
 Normal termination of Gaussian 16 at Thu Dec 10 09:16:43 2020.

 --------------------------------------------------------------------
 #N Geom=AllCheck Guess=TCheck SCRF=Check GenChk RB3LYP/6-31G(d) Freq
 --------------------------------------------------------------------

 Structure from the checkpoint file:  "JID_4179.chk"
 -------------------------------
 CID_103572398_JID_4179_neutraal
 -------------------------------
 Charge =  0 Multiplicity = 1

 SCF Done:  E(RB3LYP) =  -983.459420033     A.U. after    1 cycles

  Exact polarizability: 198.972   1.648 124.911  11.987 -12.836  76.816
 Approx polarizability: 274.586  -3.600 222.043  25.742 -35.990 120.048

                      1                      2                      3
                      A                      A                      A
 Frequencies --     26.4117                41.4774                69.0069
 Red. masses --      3.5712                 5.4409                 3.2468
 Frc consts  --      0.0015                 0.0055                 0.0091
 IR Inten    --      1.2348                 0.0965                 0.0695

                      4                      5                      6
                      A                      A                      A
 Frequencies --     88.9154               103.0211               149.7382
 Red. masses --      4.4920                 5.6645                 1.8907
 Frc consts  --      0.0209                 0.0354                 0.0250
 IR Inten    --      1.1795                 1.7473                 0.4404

                      7                      8                      9
                      A                      A                      A
 Frequencies --    243.8813               255.1742               268.8003
 Red. masses --      2.3764                 1.8371                 5.0462
 Frc consts  --      0.0833                 0.0705                 0.2148
 IR Inten    --      1.4399                 3.6716                 2.1642

                     10                     11                     12
                      A                      A                      A
 Frequencies --    301.9975               314.3585               331.1452
 Red. masses --      3.8343                 3.4790                 4.3465
 Frc consts  --      0.2060                 0.2026                 0.2808
 IR Inten    --      6.1498                 4.1399                 5.1255

                     13                     14                     15
                      A                      A                      A
 Frequencies --    351.9194               393.5283               463.8107
 Red. masses --      1.4062                 2.6138                 3.2669
 Frc consts  --      0.1026                 0.2385                 0.4141
 IR Inten    --     38.7982                 1.4646                 7.5999

                     16                     17                     18
                      A                      A                      A
 Frequencies --    483.3291               498.0922               604.7330
 Red. masses --      1.5372                 3.0032                 8.1510
 Frc consts  --      0.2116                 0.4390                 1.7563
 IR Inten    --    280.8164                34.2449                 5.2710

                     19                     20                     21
                      A                      A                      A
 Frequencies --    621.6094               645.2747               672.3180
 Red. masses --      4.8027                 4.3088                 5.3429
 Frc consts  --      1.0934                 1.0570                 1.4229
 IR Inten    --     43.1206                 3.9004                 2.5552

                     22                     23                     24
                      A                      A                      A
 Frequencies --    675.4984               684.3871               749.9643
 Red. masses --      4.9021                 2.7159                 4.5744
 Frc consts  --      1.3179                 0.7495                 1.5159
 IR Inten    --      8.1653                 0.4439                33.8025

                     25                     26                     27
                      A                      A                      A
 Frequencies --    773.6688               814.2538               821.7825
 Red. masses --      9.0649                 1.4625                 1.5062
 Frc consts  --      3.1969                 0.5713                 0.5993
 IR Inten    --      7.2296                 7.2135                14.8044

                     28                     29                     30
                      A                      A                      A
 Frequencies --    880.7591               889.1196               913.9215
 Red. masses --      2.4409                 1.4436                 8.7753
 Frc consts  --      1.1156                 0.6724                 4.3185
 IR Inten    --      1.3733                12.3474                19.0229

                     31                     32                     33
                      A                      A                      A
 Frequencies --    916.7016              1003.2340              1035.6397
 Red. masses --      1.3687                 3.5403                 4.5391
 Frc consts  --      0.6777                 2.0994                 2.8684
 IR Inten    --      4.8381                30.0481                33.8614

                     34                     35                     36
                      A                      A                      A
 Frequencies --   1049.8903              1097.0120              1115.9389
 Red. masses --      1.8301                 2.0351                 1.8565
 Frc consts  --      1.1885                 1.4430                 1.3622
 IR Inten    --      0.9518                16.0195                 8.8010

                     37                     38                     39
                      A                      A                      A
 Frequencies --   1126.5649              1170.1710              1215.1202
 Red. masses --      1.7595                 2.0705                 1.5158
 Frc consts  --      1.3157                 1.6704                 1.3187
 IR Inten    --     16.2193                 0.3747                 4.1139

                     40                     41                     42
                      A                      A                      A
 Frequencies --   1249.8710              1298.6977              1316.8053
 Red. masses --      2.0190                 3.8473                 1.2146
 Frc consts  --      1.8583                 3.8232                 1.2409
 IR Inten    --      6.8420               142.7143                 3.6983

                     43                     44                     45
                      A                      A                      A
 Frequencies --   1332.2256              1353.3341              1398.6622
 Red. masses --      3.1591                 2.3176                 1.4264
 Frc consts  --      3.3034                 2.5009                 1.6441
 IR Inten    --     50.9914                18.5218                18.0257

                     46                     47                     48
                      A                      A                      A
 Frequencies --   1405.9586              1424.6515              1446.5008
 Red. masses --      1.5010                 3.8480                 1.2978
 Frc consts  --      1.7482                 4.6016                 1.5999
 IR Inten    --     13.8392                21.9520                10.0801

                     49                     50                     51
                      A                      A                      A
 Frequencies --   1457.6080              1488.1127              1509.0082
 Red. masses --      7.7145                 3.9274                 1.1704
 Frc consts  --      9.6570                 5.1242                 1.5703
 IR Inten    --    117.9945                75.4063                17.5869

                     52                     53                     54
                      A                      A                      A
 Frequencies --   1514.4468              1530.0919              1530.7573
 Red. masses --      1.0916                 2.5252                 1.2478
 Frc consts  --      1.4751                 3.4833                 1.7227
 IR Inten    --      1.7071                17.8540                 5.1874

                     55                     56                     57
                      A                      A                      A
 Frequencies --   1537.4805              1593.7844              1636.0914
 Red. masses --      1.1133                 3.8606                 5.4184
 Frc consts  --      1.5506                 5.7778                 8.5455
 IR Inten    --      4.4906               212.6551               168.0591

                     58                     59                     60
                      A                      A                      A
 Frequencies --   1678.1109              3047.2534              3052.6921
 Red. masses --      1.4743                 1.0390                 1.0646
 Frc consts  --      2.4461                 5.6846                 5.8450
 IR Inten    --    180.6915                20.4535                30.2404

                     61                     62                     63
                      A                      A                      A
 Frequencies --   3075.1051              3097.1126              3115.9011
 Red. masses --      1.0605                 1.0963                 1.1008
 Frc consts  --      5.9085                 6.1960                 6.2970
 IR Inten    --     32.9538                 7.8651                31.8332

                     64                     65                     66
                      A                      A                      A
 Frequencies --   3127.1474              3130.2552              3276.2082
 Red. masses --      1.1054                 1.1034                 1.0966
 Frc consts  --      6.3692                 6.3698                 6.9347
 IR Inten    --     28.0643                40.9840                 1.0413

                     67                     68                     69
                      A                      A                      A
 Frequencies --   3294.1501              3574.1481              3685.9943
 Red. masses --      1.0980                 1.0468                 1.1011
 Frc consts  --      7.0197                 7.8788                 8.8141
 IR Inten    --      0.2520                53.7837                35.6483

 - Thermochemistry -
 -------------------
 Temperature   298.150 Kelvin.  Pressure   1.00000 Atm.
 Atom     1 has atomic number  6 and mass  12.00000

 Molecular mass:   209.07352 amu.
 Principal axes and moments of inertia in atomic units:
                           1         2         3
     Eigenvalues --  1154.842756572.385327210.36629
           X            0.99997  -0.00315  -0.00655
           Y            0.00325   0.99989   0.01456
           Z            0.00650  -0.01458   0.99987
 This molecule is an asymmetric top.
 Rotational symmetry number  1.
 Warning -- assumption of classical behavior for rotation
           may cause significant error
 Rotational temperatures (Kelvin)      0.07500     0.01318     0.01201
 Rotational constants (GHZ):           1.56276     0.27459     0.25030
 Zero-point vibrational energy     520616.8 (Joules/Mol)
                                  124.43041 (Kcal/Mol)
 Warning -- explicit consideration of  18 degrees of freedom as
           vibrations may cause significant error
 Vibrational temperatures:     38.00    59.68    99.29   127.93   148.22
          (Kelvin)            215.44   350.89   367.14   386.74   434.51
                              452.29   476.44   506.33   566.20   667.32
                              695.40   716.64   870.08   894.36   928.41
                              967.32   971.89   984.68  1079.03  1113.14
                             1171.53  1182.36  1267.22  1279.24  1314.93
                             1318.93  1443.43  1490.05  1510.56  1578.36
                             1605.59  1620.88  1683.62  1748.29  1798.29
                             1868.54  1894.59  1916.78  1947.15  2012.36
                             2022.86  2049.76  2081.19  2097.17  2141.06
                             2171.13  2178.95  2201.46  2202.42  2212.09
                             2293.10  2353.97  2414.43  4384.32  4392.14
                             4424.39  4456.05  4483.09  4499.27  4503.74
                             4713.73  4739.55  5142.40  5303.32

 Zero-point correction=                           0.198292 (Hartree/Particle)
 Thermal correction to Energy=                    0.211495
 Thermal correction to Enthalpy=                  0.212439
 Thermal correction to Gibbs Free Energy=         0.156704
 Sum of electronic and zero-point Energies=           -983.261128
 Sum of electronic and thermal Energies=              -983.247925
 Sum of electronic and thermal Enthalpies=            -983.246981
 Sum of electronic and thermal Free Energies=         -983.302716

                     E (Thermal)             CV                S
                      KCal/Mol        Cal/Mol-Kelvin    Cal/Mol-Kelvin
 Total                  132.715             49.091            117.304
 Electronic               0.000              0.000              0.000
 Translational            0.889              2.981             41.916
 Rotational               0.889              2.981             32.370
 Vibrational            130.938             43.129             43.017
 Vibration     1          0.593              1.985              6.082
 Vibration     2          0.594              1.981              5.187
 Vibration     3          0.598              1.969              4.181
 Vibration     4          0.602              1.957              3.684
 Vibration     5          0.605              1.947              3.396
 Vibration     6          0.618              1.903              2.676
 Vibration     7          0.659              1.773              1.774
 Vibration     8          0.666              1.754              1.695
 Vibration     9          0.673              1.731              1.604
 Vibration    10          0.694              1.670              1.406
 Vibration    11          0.702              1.646              1.339
 Vibration    12          0.714              1.613              1.254
 Vibration    13          0.728              1.571              1.158
 Vibration    14          0.761              1.484              0.987
 Vibration    15          0.821              1.330              0.755
 Vibration    16          0.840              1.287              0.701
 Vibration    17          0.854              1.254              0.663
 Vibration    18          0.963              1.022              0.442

                           ! Non-Optimized Parameters !
 Normal termination of Gaussian 16 at Thu Dec 10 09:22:14 2020.

 ----------------------------------------------------------------------
 # B3LYP/6-311++G(d,p) empiricaldispersion=gd3bj scf=xqc pop=npa geom=c
 heck
 ----------------------------------------------------------------------

 ---------------------------------------
 CID_103572398_JID_4179_Energie_neutraal
 ---------------------------------------
 Structure from the checkpoint file:  "JID_4179.chk"
 Charge =  0 Multiplicity = 1

 SCF Done:  E(RB3LYP) =  -983.647505531     A.U. after   15 cycles
 Normal termination of Gaussian 16 at Thu Dec 10 09:24:27 2020.

 ----------------------------------------------------------------------
 # B3LYP/6-311++G(d,p) empiricaldispersion=gd3bj scf=xqc pop=npa geom=c
 heck
 ----------------------------------------------------------------------

 -------------------------------------
 CID_103572398_JID_4179_Energie_kation
 -------------------------------------
 Structure from the checkpoint file:  "JID_4179.chk"
 Charge =  1 Multiplicity = 2

 SCF Done:  E(UB3LYP) =  -983.360514401     A.U. after   25 cycles
 Normal termination of Gaussian 16 at Thu Dec 10 09:29:09 2020.
 Gaussian 16:  ES64L-G16RevA.03 25-Dec-2016

 ----------------------------------------------------------------------
 # B3LYP/6-311++G(d,p) empiricaldispersion=gd3bj scf=xqc pop=npa geom=c
 heck
 ----------------------------------------------------------------------

 ------------------------------------
 CID_103572398_JID_4179_Energie_anion
 ------------------------------------
 Structure from the checkpoint file:  "JID_4179.chk"
 Charge = -1 Multiplicity = 2

                         Standard orientation:
 ---------------------------------------------------------------------
 Center     Atomic      Atomic             Coordinates (Angstroms)
 Number     Number       Type             X           Y           Z
 ---------------------------------------------------------------------
      1          6           0       -3.834523    1.395148    1.370909
      2          6           0       -4.463434    0.446788    0.349279
      3          6           0       -3.618508    0.280425   -0.917803
      4          7           0       -2.305416   -0.277849   -0.631904
      5          6           0       -1.109573    0.356726   -0.627728
      6          6           0       -0.167211   -0.566499   -0.193747
      7          6           0       -0.918607   -1.744611    0.047311
      8          7           0       -2.210059   -1.567140   -0.213419
      9          6           0        1.260176   -0.348544   -0.037879
     10          7           0        2.049531   -1.319208    0.378173
     11         16           0        3.627257   -0.707393    0.432883
     12          6           0        3.075693    0.873623   -0.116173
     13          7           0        1.785272    0.898959   -0.323355
     14          7           0        3.909190    1.928275   -0.356460
     15          1           0       -2.859655    1.024092    1.703830
     16          1           0       -4.473324    1.497813    2.254218
     17          1           0       -3.686320    2.396324    0.946770
     18          1           0       -4.608368   -0.544026    0.793427
     19          1           0       -5.453015    0.813038    0.046804
     20          1           0       -4.116383   -0.385491   -1.628812
     21          1           0       -3.455067    1.245371   -1.408727
     22          1           0       -0.998577    1.387913   -0.926346
     23          1           0       -0.553208   -2.701687    0.392172
     24          1           0        4.784378    1.966528    0.146521
     25          1           0        3.439721    2.818827   -0.462235
 ---------------------------------------------------------------------

 SCF Done:  E(UB3LYP) =  -983.642876138     A.U. after   33 cycles
 SCF Done:  E(UB3LYP) =  -983.642876138     a.u. after    1 cycles

 The electronic state is 2-A.
 Alpha  occ. eigenvalues --  -88.78539 -14.29724 -14.23675 -14.23302 -14.21054
 Alpha  occ. eigenvalues --  -14.20140 -10.16893 -10.13609 -10.12778 -10.11189
 Alpha  occ. eigenvalues --  -10.09698 -10.08843 -10.07852 -10.07744  -7.86998
 Alpha  occ. eigenvalues --   -5.83390  -5.82949  -5.82472  -0.95911  -0.90201
 Alpha  occ. eigenvalues --   -0.82684  -0.76241  -0.75354  -0.70805  -0.68805
 Alpha  occ. eigenvalues --   -0.64613  -0.60239  -0.53745  -0.52859  -0.50793
 Alpha  occ. eigenvalues --   -0.47119  -0.46547  -0.43997  -0.40633  -0.39452
 Alpha  occ. eigenvalues --   -0.38954  -0.36957  -0.34984  -0.34541  -0.33815
 Alpha  occ. eigenvalues --   -0.32452  -0.31795  -0.30608  -0.27926  -0.27232
 Alpha  occ. eigenvalues --   -0.26658  -0.26068  -0.24800  -0.21443  -0.20212
 Alpha  occ. eigenvalues --   -0.19387  -0.17432  -0.16766  -0.15433  -0.11881
 Alpha  occ. eigenvalues --    0.03831
 Alpha virt. eigenvalues --    0.05127   0.06768   0.07446   0.07697   0.08559
 Alpha virt. eigenvalues --    0.09117   0.09578   0.10020   0.10604   0.11047
 Alpha virt. eigenvalues --    0.11596   0.11746   0.12097   0.12620   0.12915

  Beta  occ. eigenvalues --  -88.78527 -14.29721 -14.23681 -14.23187 -14.20939
  Beta  occ. eigenvalues --  -14.20147 -10.16823 -10.13572 -10.12759 -10.11144
  Beta  occ. eigenvalues --  -10.09695 -10.08827 -10.07853 -10.07732  -7.86985
  Beta  occ. eigenvalues --   -5.83378  -5.82942  -5.82447  -0.95900  -0.90101
  Beta  occ. eigenvalues --   -0.82517  -0.76223  -0.75235  -0.70751  -0.68765
  Beta  occ. eigenvalues --   -0.64516  -0.60195  -0.53660  -0.52808  -0.50633
  Beta  occ. eigenvalues --   -0.47034  -0.46478  -0.43920  -0.40523  -0.39412
  Beta  occ. eigenvalues --   -0.38815  -0.36910  -0.34951  -0.34453  -0.33696
  Beta  occ. eigenvalues --   -0.32373  -0.31765  -0.30584  -0.27827  -0.27186
  Beta  occ. eigenvalues --   -0.26599  -0.26041  -0.24533  -0.21342  -0.20179
  Beta  occ. eigenvalues --   -0.19239  -0.17356  -0.16695  -0.15347  -0.11613
  Beta virt. eigenvalues --    0.05957   0.07167   0.07484   0.07776   0.08182
  Beta virt. eigenvalues --    0.08825   0.09597   0.09731   0.10397   0.10718
  Beta virt. eigenvalues --    0.11196   0.11773   0.12095   0.12429   0.12622

 Mulliken charges and spin densities:
               1          2
     1  C   -0.063557  -0.470728
     2  C   -0.114557  -0.087692
     3  C    0.315954  -0.574571
     4  N    0.359261   0.017497
     5  C   -0.771607   0.293830
     6  C    0.352319  -0.248146
     7  C    0.015663  -0.233858
     8  N   -0.334214   0.057657
     9  C   -0.612491  -0.125999
    10  N   -0.042793   0.042016
    11  S    0.208753   0.047660
    12  C    0.999792  -0.628571
    13  N   -0.002283  -0.117580
    14  N   -0.287608   0.040693
    15  H    0.121825   0.038016
    16  H   -0.032642   0.166750
    17  H    0.040059   0.096231
    18  H    0.196368  -0.038090
    19  H   -0.350303   0.492789
    20  H    0.004798   0.171246
    21  H   -0.287172   0.443186
    22  H    0.022390   0.165524
    23  H    0.160945  -0.004128
    24  H   -0.771628   1.061906
    25  H   -0.127271   0.394362
 Sum of Mulliken charges =  -1.00000   1.00000

 Dipole moment (field-independent basis, Debye):
    X=             -4.9772    Y=             -3.9559    Z=              0.0713  Tot=              6.3582
 Quadrupole moment (field-independent basis, Debye-Ang):
   XX=           -195.9974   YY=           -129.8181   ZZ=           -110.4104
   XY=            -15.1484   XZ=             -7.5012   YZ=              0.2451

 Summary of Natural Population Analysis:

                                       Natural Population
                Natural  -----------------------------------------------
    Atom  No    Charge         Core      Valence    Rydberg      Total
 -----------------------------------------------------------------------
      C    1   -0.29033      0.99966     2.28509    0.00558     3.29033
      C    2   -0.19676      0.99964     2.18921    0.00791     3.19676
      C    3   -0.07951      0.99961     2.06771    0.01220     3.07951
      N    4   -0.10960      0.99966     2.59690    0.01304     3.60960
      C    5    0.02116      0.99952     1.96882    0.01050     2.97884
      C    6   -0.09784      0.99949     2.08860    0.00976     3.09784
      C    7    0.00767      0.99961     1.97991    0.01281     2.99233
      N    8   -0.15987      0.99973     2.64954    0.01060     3.65987
      C    9    0.19348      0.99958     1.78883    0.01811     2.80652
      N   10   -0.31355      0.99970     2.80473    0.00912     3.81355
      S   11    0.24257      4.99946     2.73162    0.02635     7.75743
      C   12    0.14293      0.99963     1.83447    0.02298     2.85707
      N   13   -0.29099      0.99963     2.78068    0.01068     3.79099
      N   14   -0.38847      0.99968     2.87684    0.01196     3.88847
      H   15    0.10291      0.00000     0.39617    0.00092     0.39709
      H   16    0.09893      0.00000     0.40042    0.00065     0.40107
      H   17    0.09708      0.00000     0.40197    0.00095     0.40292
      H   18    0.10224      0.00000     0.39651    0.00125     0.39776
      H   19    0.09882      0.00000     0.39945    0.00173     0.40118
      H   20    0.10320      0.00000     0.39558    0.00122     0.39680
      H   21    0.10019      0.00000     0.39841    0.00140     0.39981
      H   22    0.11172      0.00000     0.38689    0.00139     0.38828
      H   23    0.10287      0.00000     0.39631    0.00082     0.39713
      H   24    0.20270      0.00000     0.27080    0.02650     0.29730
      H   25    0.19846      0.00000     0.29688    0.00466     0.30154
 =======================================================================
   * Total *   -0.00000     17.99460    36.78234    0.22306    55.00000

 Normal termination of Gaussian 16 at Thu Dec 10 09:35:26 2020.
