 Gaussian 16, Revision A.03,

 -----------------------------------------------------------
 # opt freq B3LYP/6-31G(d) empiricaldispersion=gd3bj scf=xqc
 -----------------------------------------------------------

 ------------------------------
 CID_89030245_JID_1641_neutraal
 ------------------------------
 Symbolic Z-matrix:
 Charge =  0 Multiplicity = 1

 SCF Done:  E(RB3LYP) =  -878.004746472     A.U. after   15 cycles
 SCF Done:  E(RB3LYP) =  -878.008941821     A.U. after   14 cycles
 SCF Done:  E(RB3LYP) =  -878.007288707     A.U. after   14 cycles
 SCF Done:  E(RB3LYP) =  -878.011246897     A.U. after   12 cycles
 SCF Done:  E(RB3LYP) =  -878.011341757     A.U. after   13 cycles
 SCF Done:  E(RB3LYP) =  -878.011888462     A.U. after   13 cycles
 SCF Done:  E(RB3LYP) =  -878.012015335     A.U. after   11 cycles
 SCF Done:  E(RB3LYP) =  -878.012064127     A.U. after   11 cycles
 SCF Done:  E(RB3LYP) =  -878.012090464     A.U. after   10 cycles
 SCF Done:  E(RB3LYP) =  -878.012094961     A.U. after    9 cycles
 SCF Done:  E(RB3LYP) =  -878.013534675     A.U. after    8 cycles
 SCF Done:  E(RB3LYP) =  -878.013537448     A.U. after    9 cycles
 SCF Done:  E(RB3LYP) =  -878.013538772     A.U. after    9 cycles
 SCF Done:  E(RB3LYP) =  -878.013538889     A.U. after    8 cycles
 SCF Done:  E(RB3LYP) =  -878.013538932     A.U. after    7 cycles
 Optimization completed.
    -- Stationary point found.
 Normal termination of Gaussian 16 at Tue Dec  8 20:47:55 2020.

 --------------------------------------------------------------------
 #N Geom=AllCheck Guess=TCheck SCRF=Check GenChk RB3LYP/6-31G(d) Freq
 --------------------------------------------------------------------

 Structure from the checkpoint file:  "JID_1641.chk"
 ------------------------------
 CID_89030245_JID_1641_neutraal
 ------------------------------
 Charge =  0 Multiplicity = 1

 SCF Done:  E(RB3LYP) =  -878.013538932     A.U. after    1 cycles

  Exact polarizability: 113.434  -3.713  98.514   1.471   2.631  84.921
 Approx polarizability: 161.632 -15.604 133.358  -3.477  11.074 133.898

                      1                      2                      3
                      A                      A                      A
 Frequencies --     37.5337                57.9757                69.9394
 Red. masses --      5.7058                 7.4585                 2.9205
 Frc consts  --      0.0047                 0.0148                 0.0084
 IR Inten    --      2.6725                 0.6433                 0.5290

                      4                      5                      6
                      A                      A                      A
 Frequencies --     80.7995               108.2340               142.9645
 Red. masses --      2.9812                 4.1481                 6.2022
 Frc consts  --      0.0115                 0.0286                 0.0747
 IR Inten    --      0.5799                 1.8853                 4.6482

                      7                      8                      9
                      A                      A                      A
 Frequencies --    166.8624               201.4703               212.5272
 Red. masses --      1.0330                 3.4839                 1.4350
 Frc consts  --      0.0169                 0.0833                 0.0382
 IR Inten    --      0.2113                 1.1014                 2.3529

                     10                     11                     12
                      A                      A                      A
 Frequencies --    234.6580               257.3182               308.1078
 Red. masses --      3.6279                 1.9709                 1.1427
 Frc consts  --      0.1177                 0.0769                 0.0639
 IR Inten    --      2.0194                 5.2400                21.9573

                     13                     14                     15
                      A                      A                      A
 Frequencies --    352.0727               423.4757               466.1523
 Red. masses --      2.7523                 4.3617                 3.3560
 Frc consts  --      0.2010                 0.4609                 0.4297
 IR Inten    --      1.6970                 2.5167                 3.9865

                     16                     17                     18
                      A                      A                      A
 Frequencies --    511.1547               528.0182               559.4304
 Red. masses --      3.1488                 3.1739                 2.3213
 Frc consts  --      0.4847                 0.5214                 0.4280
 IR Inten    --     15.7678                10.9869                16.6259

                     19                     20                     21
                      A                      A                      A
 Frequencies --    588.5071               661.9031               679.7163
 Red. masses --      4.1978                 3.0421                 2.7607
 Frc consts  --      0.8566                 0.7853                 0.7515
 IR Inten    --     13.2903                11.2193                15.4577

                     22                     23                     24
                      A                      A                      A
 Frequencies --    708.6903               764.4545               800.7307
 Red. masses --      1.5113                 1.9212                 1.4842
 Frc consts  --      0.4472                 0.6615                 0.5607
 IR Inten    --    108.9243                 6.3960                 3.4995

                     25                     26                     27
                      A                      A                      A
 Frequencies --    834.5174               864.7485               952.3621
 Red. masses --      1.7662                 2.7536                 1.9689
 Frc consts  --      0.7247                 1.2132                 1.0522
 IR Inten    --      4.8664                 6.2664                29.5555

                     28                     29                     30
                      A                      A                      A
 Frequencies --    997.1159              1029.0557              1038.1657
 Red. masses --      2.3432                 1.4947                 1.5292
 Frc consts  --      1.3726                 0.9326                 0.9711
 IR Inten    --      5.0787                24.2759                 6.5090

                     31                     32                     33
                      A                      A                      A
 Frequencies --   1063.0740              1064.0356              1097.5548
 Red. masses --      2.0507                 1.8451                 1.7219
 Frc consts  --      1.3655                 1.2308                 1.2221
 IR Inten    --      5.9907                19.1206                 2.9937

                     34                     35                     36
                      A                      A                      A
 Frequencies --   1168.9057              1214.8063              1249.0610
 Red. masses --      2.3983                 2.1308                 1.3309
 Frc consts  --      1.9307                 1.8527                 1.2234
 IR Inten    --     15.1731                39.2355                15.0590

                     37                     38                     39
                      A                      A                      A
 Frequencies --   1274.3248              1302.0849              1332.7888
 Red. masses --      1.4199                 1.2996                 1.3764
 Frc consts  --      1.3586                 1.2982                 1.4405
 IR Inten    --      5.1742                17.4230                 9.2513

                     40                     41                     42
                      A                      A                      A
 Frequencies --   1343.1863              1360.2142              1365.4421
 Red. masses --      1.5371                 1.6741                 1.8531
 Frc consts  --      1.6339                 1.8249                 2.0356
 IR Inten    --    101.7340                41.7310                49.4657

                     43                     44                     45
                      A                      A                      A
 Frequencies --   1424.7315              1434.7613              1479.8316
 Red. masses --      1.4315                 1.2365                 1.0904
 Frc consts  --      1.7120                 1.4997                 1.4069
 IR Inten    --     72.0834                12.4629                11.1644

                     46                     47                     48
                      A                      A                      A
 Frequencies --   1495.8949              1497.1220              1503.6195
 Red. masses --      1.1188                 1.5374                 1.0610
 Frc consts  --      1.4750                 2.0302                 1.4134
 IR Inten    --     18.7455                39.9276                12.2277

                     49                     50                     51
                      A                      A                      A
 Frequencies --   1517.3972              1531.1878              1537.5770
 Red. masses --      1.0575                 1.0452                 1.0508
 Frc consts  --      1.4347                 1.4438                 1.4637
 IR Inten    --     11.1554                 5.1419                10.1920

                     52                     53                     54
                      A                      A                      A
 Frequencies --   1803.7864              1805.1739              2697.2933
 Red. masses --      9.7729                 9.4648                 1.0381
 Frc consts  --     18.7345                18.1720                 4.4499
 IR Inten    --    415.0570                99.1360                 3.7157

                     55                     56                     57
                      A                      A                      A
 Frequencies --   3056.6507              3062.2563              3065.3504
 Red. masses --      1.0449                 1.0422                 1.0727
 Frc consts  --      5.7519                 5.7583                 5.9387
 IR Inten    --      3.6646                 8.8018                10.2723

                     58                     59                     60
                      A                      A                      A
 Frequencies --   3068.2532              3102.9902              3116.9653
 Red. masses --      1.0577                 1.0611                 1.1004
 Frc consts  --      5.8670                 6.0196                 6.2990
 IR Inten    --     20.2078                11.6173                12.1717

                     61                     62                     63
                      A                      A                      A
 Frequencies --   3121.7738              3131.7391              3148.6922
 Red. masses --      1.1001                 1.1034                 1.1015
 Frc consts  --      6.3164                 6.3760                 6.4342
 IR Inten    --      5.8019                17.7251                35.4389

                     64                     65                     66
                      A                      A                      A
 Frequencies --   3165.0453              3180.8595              3558.4060
 Red. masses --      1.1059                 1.0995                 1.0750
 Frc consts  --      6.5275                 6.5547                 8.0202
 IR Inten    --      4.2079                 6.9944                27.2081

 - Thermochemistry -
 -------------------
 Temperature   298.150 Kelvin.  Pressure   1.00000 Atm.
 Atom     1 has atomic number  6 and mass  12.00000

 Molecular mass:   175.06670 amu.
 Principal axes and moments of inertia in atomic units:
                           1         2         3
     Eigenvalues --  1892.772312303.246673558.03902
           X            0.99666   0.07921   0.01984
           Y           -0.07861   0.99647  -0.02940
           Z           -0.02210   0.02774   0.99937
 This molecule is an asymmetric top.
 Rotational symmetry number  1.
 Warning -- assumption of classical behavior for rotation
           may cause significant error
 Rotational temperatures (Kelvin)      0.04576     0.03761     0.02434
 Rotational constants (GHZ):           0.95349     0.78356     0.50723
 Zero-point vibrational energy     520264.9 (Joules/Mol)
                                  124.34630 (Kcal/Mol)
 Warning -- explicit consideration of  19 degrees of freedom as
           vibrations may cause significant error
 Vibrational temperatures:     54.00    83.41   100.63   116.25   155.72
          (Kelvin)            205.69   240.08   289.87   305.78   337.62
                              370.22   443.30   506.55   609.29   670.69
                              735.44   759.70   804.90   846.73   952.33
                              977.96  1019.65  1099.88  1152.07  1200.68
                             1244.18  1370.24  1434.63  1480.58  1493.69
                             1529.53  1530.91  1579.14  1681.79  1747.84
                             1797.12  1833.47  1873.41  1917.59  1932.55
                             1957.04  1964.57  2049.87  2064.30  2129.15
                             2152.26  2154.02  2163.37  2183.20  2203.04
                             2212.23  2595.25  2597.24  3880.80  4397.84
                             4405.90  4410.36  4414.53  4464.51  4484.62
                             4491.54  4505.87  4530.27  4553.79  4576.55
                             5119.75

 Zero-point correction=                           0.198158 (Hartree/Particle)
 Thermal correction to Energy=                    0.211431
 Thermal correction to Enthalpy=                  0.212375
 Thermal correction to Gibbs Free Energy=         0.157380
 Sum of electronic and zero-point Energies=           -877.815380
 Sum of electronic and thermal Energies=              -877.802108
 Sum of electronic and thermal Enthalpies=            -877.801164
 Sum of electronic and thermal Free Energies=         -877.856159

                     E (Thermal)             CV                S
                      KCal/Mol        Cal/Mol-Kelvin    Cal/Mol-Kelvin
 Total                  132.675             46.998            115.746
 Electronic               0.000              0.000              0.000
 Translational            0.889              2.981             41.387
 Rotational               0.889              2.981             31.118
 Vibrational            130.897             41.036             43.241
 Vibration     1          0.594              1.982              5.385
 Vibration     2          0.596              1.974              4.525
 Vibration     3          0.598              1.968              4.155
 Vibration     4          0.600              1.962              3.871
 Vibration     5          0.606              1.943              3.300
 Vibration     6          0.616              1.910              2.764
 Vibration     7          0.624              1.883              2.471
 Vibration     8          0.638              1.838              2.120
 Vibration     9          0.644              1.822              2.022
 Vibration    10          0.654              1.788              1.843
 Vibration    11          0.667              1.750              1.680
 Vibration    12          0.698              1.658              1.372
 Vibration    13          0.729              1.571              1.157
 Vibration    14          0.786              1.419              0.880
 Vibration    15          0.824              1.325              0.748
 Vibration    16          0.866              1.225              0.631
 Vibration    17          0.883              1.188              0.592
 Vibration    18          0.915              1.119              0.525
 Vibration    19          0.946              1.056              0.470

 Optimization completed.
    -- Stationary point found.
 Normal termination of Gaussian 16 at Tue Dec  8 20:53:19 2020.

 ----------------------------------------------------------------------
 # B3LYP/6-311++G(d,p) empiricaldispersion=gd3bj scf=xqc pop=npa geom=c
 heck
 ----------------------------------------------------------------------

 --------------------------------------
 CID_89030245_JID_1641_Energie_neutraal
 --------------------------------------
 Structure from the checkpoint file:  "JID_1641.chk"
 Charge =  0 Multiplicity = 1

 SCF Done:  E(RB3LYP) =  -878.190941277     A.U. after   14 cycles
 Normal termination of Gaussian 16 at Tue Dec  8 20:55:09 2020.

 ----------------------------------------------------------------------
 # B3LYP/6-311++G(d,p) empiricaldispersion=gd3bj scf=xqc pop=npa geom=c
 heck
 ----------------------------------------------------------------------

 ------------------------------------
 CID_89030245_JID_1641_Energie_kation
 ------------------------------------
 Structure from the checkpoint file:  "JID_1641.chk"
 Charge =  1 Multiplicity = 2

 SCF Done:  E(UB3LYP) =  -877.869469726     A.U. after   26 cycles
 Normal termination of Gaussian 16 at Tue Dec  8 21:00:47 2020.
 Gaussian 16:  ES64L-G16RevA.03 25-Dec-2016

 ----------------------------------------------------------------------
 # B3LYP/6-311++G(d,p) empiricaldispersion=gd3bj scf=xqc pop=npa geom=c
 heck
 ----------------------------------------------------------------------

 -----------------------------------
 CID_89030245_JID_1641_Energie_anion
 -----------------------------------
 Structure from the checkpoint file:  "JID_1641.chk"
 Charge = -1 Multiplicity = 2

                         Standard orientation:
 ---------------------------------------------------------------------
 Center     Atomic      Atomic             Coordinates (Angstroms)
 Number     Number       Type             X           Y           Z
 ---------------------------------------------------------------------
      1          6           0        1.208660    2.825467   -0.026580
      2          6           0       -0.049000    2.332514   -0.761706
      3          6           0       -0.871825    1.360673    0.060843
      4          8           0       -2.018756    1.601537    0.389670
      5          6           0       -0.201158    0.050737    0.530394
      6          6           0       -1.242981   -0.984172    0.979938
      7         16           0       -2.277854   -1.628703   -0.398100
      8          7           0        0.724327   -0.463425   -0.460590
      9          6           0        1.948390   -1.057360   -0.222470
     10          8           0        2.516480   -1.685094   -1.101886
     11          6           0        2.557395   -0.866861    1.158601
     12          1           0        0.953349    3.276325    0.938668
     13          1           0        1.719400    3.584868   -0.626188
     14          1           0        1.915188    2.008764    0.144755
     15          1           0       -0.706771    3.169274   -1.012126
     16          1           0        0.252438    1.839884   -1.693734
     17          1           0        0.385031    0.336120    1.413181
     18          1           0       -0.729827   -1.856843    1.392134
     19          1           0       -1.892152   -0.562958    1.748719
     20          1           0       -3.056668   -0.532852   -0.502303
     21          1           0        0.304154   -0.772268   -1.332199
     22          1           0        2.658104    0.191503    1.423500
     23          1           0        1.949197   -1.348532    1.933234
     24          1           0        3.545265   -1.327599    1.149702
 ---------------------------------------------------------------------

 SCF Done:  E(UB3LYP) =  -878.186587552     A.U. after   33 cycles
 SCF Done:  E(UB3LYP) =  -878.186587552     a.u. after    1 cycles

 The electronic state is 2-A.
 Alpha  occ. eigenvalues --  -88.73046 -18.98151 -18.96065 -14.22233 -10.16724
 Alpha  occ. eigenvalues --  -10.10127 -10.09612 -10.08764 -10.06692 -10.05783
 Alpha  occ. eigenvalues --  -10.05384  -7.81741  -5.78103  -5.77757  -5.77158
 Alpha  occ. eigenvalues --   -0.93307  -0.90104  -0.81548  -0.68118  -0.66297
 Alpha  occ. eigenvalues --   -0.63378  -0.60098  -0.53845  -0.50716  -0.47058
 Alpha  occ. eigenvalues --   -0.42341  -0.38116  -0.37342  -0.35906  -0.33674
 Alpha  occ. eigenvalues --   -0.33139  -0.32682  -0.30536  -0.30222  -0.29825
 Alpha  occ. eigenvalues --   -0.29357  -0.27515  -0.26614  -0.26032  -0.25551
 Alpha  occ. eigenvalues --   -0.23247  -0.22153  -0.21682  -0.15944  -0.15409
 Alpha  occ. eigenvalues --   -0.13448  -0.10987   0.05015
 Alpha virt. eigenvalues --    0.06953   0.08692   0.09181   0.09716   0.10306
 Alpha virt. eigenvalues --    0.11068   0.11549   0.11779   0.12033   0.12553
 Alpha virt. eigenvalues --    0.13523   0.14319   0.14602   0.15014   0.15309

  Beta  occ. eigenvalues --  -88.73041 -18.98150 -18.95699 -14.22214 -10.16712
  Beta  occ. eigenvalues --  -10.10159 -10.09177 -10.08698 -10.06639 -10.05733
  Beta  occ. eigenvalues --  -10.05419  -7.81736  -5.78099  -5.77744  -5.77153
  Beta  occ. eigenvalues --   -0.93295  -0.89374  -0.81493  -0.68015  -0.66097
  Beta  occ. eigenvalues --   -0.63301  -0.59963  -0.53566  -0.50637  -0.46948
  Beta  occ. eigenvalues --   -0.41908  -0.37971  -0.37109  -0.35781  -0.33449
  Beta  occ. eigenvalues --   -0.32910  -0.32626  -0.30345  -0.29974  -0.29688
  Beta  occ. eigenvalues --   -0.29290  -0.27125  -0.26518  -0.25904  -0.25339
  Beta  occ. eigenvalues --   -0.23149  -0.21633  -0.20443  -0.15867  -0.15378
  Beta  occ. eigenvalues --   -0.13391  -0.10734
  Beta virt. eigenvalues --    0.07557   0.08425   0.09190   0.09913   0.10524
  Beta virt. eigenvalues --    0.11075   0.11666   0.12042   0.12156   0.12355
  Beta virt. eigenvalues --    0.12648   0.13737   0.14414   0.14587   0.15274

 Mulliken charges and spin densities:
               1          2
     1  C   -0.214214  -0.304920
     2  C   -0.123011  -0.025514
     3  C    0.069917  -0.100335
     4  O   -0.351726   0.136516
     5  C   -0.116155   0.497648
     6  C    0.265218  -0.923249
     7  S   -0.292098   0.102866
     8  N   -0.011823  -0.045205
     9  C   -0.169273   0.198895
    10  O   -0.358363   0.005169
    11  C    0.617297  -1.019932
    12  H    0.147166  -0.014430
    13  H   -0.166952   0.310413
    14  H    0.114031   0.016325
    15  H    0.063971   0.103009
    16  H    0.074548   0.040584
    17  H   -0.228789   0.432696
    18  H   -0.087417   0.306298
    19  H   -0.013808   0.237649
    20  H    0.087342  -0.006948
    21  H    0.271270  -0.010835
    22  H   -0.080976   0.216127
    23  H   -0.505591   0.676895
    24  H    0.009436   0.170280
 Sum of Mulliken charges =  -1.00000   1.00000

 Dipole moment (field-independent basis, Debye):
    X=             -0.4142    Y=              1.2589    Z=             -2.0516  Tot=              2.4424
 Quadrupole moment (field-independent basis, Debye-Ang):
   XX=           -114.4638   YY=           -113.2687   ZZ=           -106.4562
   XY=              7.6684   XZ=              5.3222   YZ=              4.3365

 Summary of Natural Population Analysis:

                                       Natural Population
                Natural  -----------------------------------------------
    Atom  No    Charge         Core      Valence    Rydberg      Total
 -----------------------------------------------------------------------
      C    1   -0.27861      0.99966     2.27402    0.00494     3.27861
      C    2   -0.23554      0.99960     2.22757    0.00837     3.23554
      C    3    0.34176      0.99965     1.63553    0.02306     2.65824
      O    4   -0.27384      0.99987     3.26784    0.00612     4.27384
      C    5   -0.06628      0.99953     2.05201    0.01474     3.06628
      C    6   -0.23987      0.99956     2.22842    0.01188     3.23987
      S    7   -0.04524      4.99965     3.03166    0.01393     8.04524
      N    8   -0.32445      0.99966     2.81480    0.00998     3.82445
      C    9    0.34452      0.99970     1.63310    0.02268     2.65548
      O   10   -0.32653      0.99987     3.32082    0.00584     4.32653
      C   11   -0.33586      0.99962     2.33135    0.00490     3.33586
      H   12    0.09460      0.00000     0.40468    0.00072     0.40540
      H   13    0.09631      0.00000     0.40197    0.00172     0.40369
      H   14    0.09581      0.00000     0.40326    0.00092     0.40419
      H   15    0.10233      0.00000     0.39645    0.00123     0.39767
      H   16    0.10619      0.00000     0.39257    0.00124     0.39381
      H   17    0.11859      0.00000     0.37836    0.00306     0.38141
      H   18    0.10578      0.00000     0.39281    0.00141     0.39422
      H   19    0.11601      0.00000     0.38291    0.00108     0.38399
      H   20    0.07289      0.00000     0.42433    0.00277     0.42711
      H   21    0.19820      0.00000     0.30016    0.00164     0.30180
      H   22    0.10678      0.00000     0.39243    0.00079     0.39322
      H   23    0.11529      0.00000     0.38220    0.00252     0.38471
      H   24    0.11115      0.00000     0.38801    0.00084     0.38885
 =======================================================================
   * Total *    0.00000     14.99638    31.85727    0.14635    47.00000

 Normal termination of Gaussian 16 at Tue Dec  8 21:07:56 2020.
