 Gaussian 16, Revision A.03,

 -----------------------------------------------------------
 # opt freq B3LYP/6-31G(d) empiricaldispersion=gd3bj scf=xqc
 -----------------------------------------------------------

 -------------------------------
 CID_141279114_JID_6575_neutraal
 -------------------------------
 Symbolic Z-matrix:
 Charge =  0 Multiplicity = 1

 SCF Done:  E(RB3LYP) =  -674.773281882     A.U. after   14 cycles
 SCF Done:  E(RB3LYP) =  -674.776511925     A.U. after   11 cycles
 SCF Done:  E(RB3LYP) =  -674.777146148     A.U. after   11 cycles
 SCF Done:  E(RB3LYP) =  -674.777438379     A.U. after   11 cycles
 SCF Done:  E(RB3LYP) =  -674.777547918     A.U. after   10 cycles
 SCF Done:  E(RB3LYP) =  -674.777650133     A.U. after   11 cycles
 SCF Done:  E(RB3LYP) =  -674.777673133     A.U. after   10 cycles
 SCF Done:  E(RB3LYP) =  -674.777707766     A.U. after   11 cycles
 SCF Done:  E(RB3LYP) =  -674.777751584     A.U. after   11 cycles
 SCF Done:  E(RB3LYP) =  -674.777775795     A.U. after   11 cycles
 SCF Done:  E(RB3LYP) =  -674.777889421     A.U. after   11 cycles
 SCF Done:  E(RB3LYP) =  -674.777891706     A.U. after   10 cycles
 SCF Done:  E(RB3LYP) =  -674.777893241     A.U. after   10 cycles
 SCF Done:  E(RB3LYP) =  -674.777894389     A.U. after   10 cycles
 SCF Done:  E(RB3LYP) =  -674.777894365     A.U. after    8 cycles
 SCF Done:  E(RB3LYP) =  -674.777894430     A.U. after    7 cycles
 Optimization completed on the basis of negligible forces.
    -- Stationary point found.
 Normal termination of Gaussian 16 at Thu Dec 10 23:52:39 2020.

 --------------------------------------------------------------------
 #N Geom=AllCheck Guess=TCheck SCRF=Check GenChk RB3LYP/6-31G(d) Freq
 --------------------------------------------------------------------

 Structure from the checkpoint file:  "JID_6575.chk"
 -------------------------------
 CID_141279114_JID_6575_neutraal
 -------------------------------
 Charge =  0 Multiplicity = 1

 SCF Done:  E(RB3LYP) =  -674.777894430     A.U. after    1 cycles

  Exact polarizability: 182.971 -10.388 151.011  10.875   3.967 127.967
 Approx polarizability: 216.575 -14.805 228.234  19.802  13.694 199.430

                      1                      2                      3
                      A                      A                      A
 Frequencies --     10.4163                25.3671                35.0668
 Red. masses --      3.7363                 3.6599                 2.9963
 Frc consts  --      0.0002                 0.0014                 0.0022
 IR Inten    --      2.4705                 0.0298                 0.0868

                      4                      5                      6
                      A                      A                      A
 Frequencies --     55.1893                57.7923                77.3075
 Red. masses --      3.4219                 3.4357                 3.0253
 Frc consts  --      0.0061                 0.0068                 0.0107
 IR Inten    --      0.2951                 1.5102                 1.8135

                      7                      8                      9
                      A                      A                      A
 Frequencies --     97.9448               132.1979               148.5695
 Red. masses --      3.6944                 3.0338                 2.5887
 Frc consts  --      0.0209                 0.0312                 0.0337
 IR Inten    --      0.7481                 1.3484                 0.2711

                     10                     11                     12
                      A                      A                      A
 Frequencies --    179.3240               200.6888               239.7375
 Red. masses --      2.5012                 2.4325                 1.5868
 Frc consts  --      0.0474                 0.0577                 0.0537
 IR Inten    --      2.8100                 0.6489                 0.7838

                     13                     14                     15
                      A                      A                      A
 Frequencies --    264.6443               281.8623               301.5224
 Red. masses --      1.1302                 2.1787                 1.8988
 Frc consts  --      0.0466                 0.1020                 0.1017
 IR Inten    --      0.5933                 1.1060                 0.9341

                     16                     17                     18
                      A                      A                      A
 Frequencies --    316.9192               330.9565               346.3212
 Red. masses --      2.2863                 1.3867                 2.1571
 Frc consts  --      0.1353                 0.0895                 0.1524
 IR Inten    --      1.9581                29.2696                 6.0774

                     19                     20                     21
                      A                      A                      A
 Frequencies --    374.3131               386.2587               426.7409
 Red. masses --      2.2243                 1.9090                 1.9563
 Frc consts  --      0.1836                 0.1678                 0.2099
 IR Inten    --      8.0389                 3.9220                 5.4193

                     22                     23                     24
                      A                      A                      A
 Frequencies --    471.8283               476.5774               504.1989
 Red. masses --      2.5797                 2.4255                 2.8997
 Frc consts  --      0.3384                 0.3246                 0.4343
 IR Inten    --      2.6348                 2.6029                 2.6573

                     25                     26                     27
                      A                      A                      A
 Frequencies --    552.8364               612.3300               624.6912
 Red. masses --      2.6364                 1.6270                 2.6496
 Frc consts  --      0.4747                 0.3594                 0.6092
 IR Inten    --      1.5321                64.1115                26.4429

                     28                     29                     30
                      A                      A                      A
 Frequencies --    682.2054               708.3299               716.3455
 Red. masses --      2.2448                 2.8346                 1.4690
 Frc consts  --      0.6156                 0.8379                 0.4441
 IR Inten    --      4.5113                11.5419                25.3647

                     31                     32                     33
                      A                      A                      A
 Frequencies --    729.5276               760.2593               795.3392
 Red. masses --      1.6493                 2.0745                 2.0236
 Frc consts  --      0.5172                 0.7064                 0.7542
 IR Inten    --      2.4876                 0.8679                 3.0823

                     34                     35                     36
                      A                      A                      A
 Frequencies --    824.2198               837.4460               854.3476
 Red. masses --      2.3328                 1.3256                 1.6694
 Frc consts  --      0.9337                 0.5477                 0.7179
 IR Inten    --      1.0087                20.2202                 0.8387

                     37                     38                     39
                      A                      A                      A
 Frequencies --    885.3457               893.0777               921.0911
 Red. masses --      2.8105                 1.8480                 1.8063
 Frc consts  --      1.2979                 0.8684                 0.9029
 IR Inten    --     54.6463                 0.4376                 0.9681

                     40                     41                     42
                      A                      A                      A
 Frequencies --    947.1089               961.3066               986.0739
 Red. masses --      1.1919                 1.7056                 1.8594
 Frc consts  --      0.6299                 0.9287                 1.0652
 IR Inten    --     80.6003                 3.6578                 1.4982

                     43                     44                     45
                      A                      A                      A
 Frequencies --    996.9930              1009.0491              1027.8203
 Red. masses --      1.9658                 2.2758                 1.7692
 Frc consts  --      1.1512                 1.3652                 1.1012
 IR Inten    --     10.5915                 8.5100                 3.5123

                     46                     47                     48
                      A                      A                      A
 Frequencies --   1043.8529              1049.0210              1061.8751
 Red. masses --      1.5733                 2.5062                 1.6119
 Frc consts  --      1.0101                 1.6249                 1.0708
 IR Inten    --      5.4641                 0.9762                 2.5971

                     49                     50                     51
                      A                      A                      A
 Frequencies --   1076.1440              1104.5082              1113.7045
 Red. masses --      1.9583                 2.7132                 1.7842
 Frc consts  --      1.3362                 1.9501                 1.3039
 IR Inten    --      0.8076                27.2293                 2.6749

                     52                     53                     54
                      A                      A                      A
 Frequencies --   1124.4547              1141.3549              1144.3662
 Red. masses --      1.5932                 1.7621                 1.8591
 Frc consts  --      1.1868                 1.3525                 1.4344
 IR Inten    --      4.5102                 4.5267                 0.2956

                     55                     56                     57
                      A                      A                      A
 Frequencies --   1177.7430              1203.8559              1209.7521
 Red. masses --      1.7156                 2.1951                 1.4578
 Frc consts  --      1.4020                 1.8744                 1.2571
 IR Inten    --      2.1560                23.6288                 0.9076

                     58                     59                     60
                      A                      A                      A
 Frequencies --   1217.6903              1231.9922              1246.7150
 Red. masses --      1.3370                 1.5820                 1.4272
 Frc consts  --      1.1681                 1.4147                 1.3070
 IR Inten    --     10.7582                19.7557                 4.8477

                     61                     62                     63
                      A                      A                      A
 Frequencies --   1273.8065              1293.2368              1307.5096
 Red. masses --      1.3547                 1.6564                 1.2387
 Frc consts  --      1.2951                 1.6322                 1.2477
 IR Inten    --      1.3799                 5.9432                 2.5722

                     64                     65                     66
                      A                      A                      A
 Frequencies --   1330.9478              1351.8476              1356.9238
 Red. masses --      1.1535                 1.1313                 1.6094
 Frc consts  --      1.2039                 1.2181                 1.7459
 IR Inten    --      1.1080                 0.9579                 0.1919

                     67                     68                     69
                      A                      A                      A
 Frequencies --   1372.3019              1380.0456              1387.1605
 Red. masses --      1.4277                 1.3868                 1.4925
 Frc consts  --      1.5842                 1.5562                 1.6921
 IR Inten    --     46.1414                11.9210                11.5834

                     70                     71                     72
                      A                      A                      A
 Frequencies --   1404.1439              1408.4532              1416.5336
 Red. masses --      1.3836                 1.5713                 1.8144
 Frc consts  --      1.6073                 1.8366                 2.1451
 IR Inten    --      0.8379                 0.9359                 5.6983

                     73                     74                     75
                      A                      A                      A
 Frequencies --   1423.6664              1426.3795              1429.7937
 Red. masses --      1.4415                 1.4267                 1.6746
 Frc consts  --      1.7214                 1.7103                 2.0171
 IR Inten    --      1.9417                12.7627                11.8348

                     76                     77                     78
                      A                      A                      A
 Frequencies --   1433.8491              1443.3347              1471.9161
 Red. masses --      1.3902                 1.2729                 3.0639
 Frc consts  --      1.6839                 1.5623                 3.9110
 IR Inten    --      8.1217                 5.1484                34.8989

                     79                     80                     81
                      A                      A                      A
 Frequencies --   1503.9041              1512.9131              1515.2018
 Red. masses --      1.0918                 1.1513                 1.1076
 Frc consts  --      1.4549                 1.5527                 1.4983
 IR Inten    --      0.3505                 3.6624                 4.6400

                     82                     83                     84
                      A                      A                      A
 Frequencies --   1517.5940              1520.5244              1525.0149
 Red. masses --      1.0730                 1.0945                 1.0687
 Frc consts  --      1.4560                 1.4909                 1.4644
 IR Inten    --      2.7347                 3.2914                 6.1800

                     85                     86                     87
                      A                      A                      A
 Frequencies --   1529.1987              1532.7386              1533.9035
 Red. masses --      1.0990                 1.0771                 1.0860
 Frc consts  --      1.5142                 1.4908                 1.5055
 IR Inten    --      5.4971                 8.0215                 6.3518

                     88                     89                     90
                      A                      A                      A
 Frequencies --   1537.5075              1545.4699              1549.4636
 Red. masses --      1.0667                 1.1162                 3.8383
 Frc consts  --      1.4856                 1.5708                 5.4294
 IR Inten    --      1.8989                 2.7293                23.9659

                     91                     92                     93
                      A                      A                      A
 Frequencies --   1627.9108              1690.2163              3004.8228
 Red. masses --      4.6740                 1.1029                 1.0833
 Frc consts  --      7.2980                 1.8563                 5.7629
 IR Inten    --     14.9099                30.0212                33.1934

                     94                     95                     96
                      A                      A                      A
 Frequencies --   3026.5454              3033.5239              3035.4348
 Red. masses --      1.0638                 1.0629                 1.0620
 Frc consts  --      5.7413                 5.7627                 5.7650
 IR Inten    --     19.9401                30.9839                38.9150

                     97                     98                     99
                      A                      A                      A
 Frequencies --   3041.5296              3043.6654              3045.1079
 Red. masses --      1.0615                 1.0519                 1.0542
 Frc consts  --      5.7857                 5.7412                 5.7595
 IR Inten    --      3.1912                16.2230                15.0681

                    100                    101                    102
                      A                      A                      A
 Frequencies --   3046.6546              3048.4115              3056.2600
 Red. masses --      1.0347                 1.0614                 1.0643
 Frc consts  --      5.6588                 5.8111                 5.8573
 IR Inten    --     22.9262                 2.3489                27.6155

                    103                    104                    105
                      A                      A                      A
 Frequencies --   3058.4525              3064.0275              3072.7546
 Red. masses --      1.0957                 1.0961                 1.0973
 Frc consts  --      6.0385                 6.0630                 6.1042
 IR Inten    --      0.9156                48.1028                60.7890

                    106                    107                    108
                      A                      A                      A
 Frequencies --   3077.4094              3081.4547              3088.0606
 Red. masses --      1.1017                 1.1003                 1.1028
 Frc consts  --      6.1471                 6.1555                 6.1960
 IR Inten    --    143.0895                37.2238                50.0115

                    109                    110                    111
                      A                      A                      A
 Frequencies --   3102.2088              3108.7007              3116.0374
 Red. masses --      1.1015                 1.1015                 1.1019
 Frc consts  --      6.2458                 6.2716                 6.3038
 IR Inten    --     39.8303                50.7605                52.5568

                    112                    113                    114
                      A                      A                      A
 Frequencies --   3118.0744              3120.3460              3256.7601
 Red. masses --      1.1028                 1.1028                 1.0964
 Frc consts  --      6.3173                 6.3264                 6.8513
 IR Inten    --     34.3565                29.3988                13.5137

                    115                    116                    117
                      A                      A                      A
 Frequencies --   3448.3733              3538.3446              3636.3338
 Red. masses --      1.0499                 1.0920                 1.0801
 Frc consts  --      7.3555                 8.0551                 8.4147
 IR Inten    --      2.7424                 1.2448                50.6950

 - Thermochemistry -
 -------------------
 Temperature   298.150 Kelvin.  Pressure   1.00000 Atm.
 Atom     1 has atomic number  6 and mass  12.00000

 Molecular mass:   223.20485 amu.
 Principal axes and moments of inertia in atomic units:
                           1         2         3
     Eigenvalues --  1879.516209113.03271**********
           X            1.00000  -0.00292   0.00062
           Y            0.00292   0.99994  -0.01089
           Z           -0.00059   0.01089   0.99994
 This molecule is an asymmetric top.
 Rotational symmetry number  1.
 Warning -- assumption of classical behavior for rotation
           may cause significant error
 Rotational temperatures (Kelvin)      0.04608     0.00950     0.00858
 Rotational constants (GHZ):           0.96022     0.19804     0.17875
 Zero-point vibrational energy     987141.8 (Joules/Mol)
                                  235.93256 (Kcal/Mol)
 Warning -- explicit consideration of  26 degrees of freedom as
           vibrations may cause significant error
 Vibrational temperatures:     14.99    36.50    50.45    79.41    83.15
          (Kelvin)            111.23   140.92   190.20   213.76   258.01
                              288.75   344.93   380.76   405.54   433.82
                              455.98   476.17   498.28   538.55   555.74
                              613.98   678.86   685.69   725.43   795.41
                              881.01   898.79   981.54  1019.13  1030.66
                             1049.63  1093.84  1144.32  1185.87  1204.90
                             1229.22  1273.81  1284.94  1325.24  1362.68
                             1383.11  1418.74  1434.45  1451.80  1478.80
                             1501.87  1509.31  1527.80  1548.33  1589.14
                             1602.37  1617.84  1642.16  1646.49  1694.51
                             1732.08  1740.56  1751.98  1772.56  1793.74
                             1832.72  1860.68  1881.21  1914.94  1945.01
                             1952.31  1974.44  1985.58  1995.81  2020.25
                             2026.45  2038.08  2048.34  2052.24  2057.15
                             2062.99  2076.64  2117.76  2163.78  2176.74
                             2180.04  2183.48  2187.70  2194.16  2200.18
                             2205.27  2206.95  2212.13  2223.59  2229.33
                             2342.20  2431.84  4323.27  4354.52  4364.56
                             4367.31  4376.08  4379.16  4381.23  4383.46
                             4385.98  4397.28  4400.43  4408.45  4421.01
                             4427.71  4433.53  4443.03  4463.39  4472.73
                             4483.28  4486.21  4489.48  4685.75  4961.44
                             5090.89  5231.87

 Zero-point correction=                           0.375982 (Hartree/Particle)
 Thermal correction to Energy=                    0.393977
 Thermal correction to Enthalpy=                  0.394921
 Thermal correction to Gibbs Free Energy=         0.326999
 Sum of electronic and zero-point Energies=           -674.401912
 Sum of electronic and thermal Energies=              -674.383918
 Sum of electronic and thermal Enthalpies=            -674.382973
 Sum of electronic and thermal Free Energies=         -674.450895

                     E (Thermal)             CV                S
                      KCal/Mol        Cal/Mol-Kelvin    Cal/Mol-Kelvin
 Total                  247.224             67.395            142.953
 Electronic               0.000              0.000              0.000
 Translational            0.889              2.981             42.111
 Rotational               0.889              2.981             33.514
 Vibrational            245.447             61.433             67.328
 Vibration     1          0.593              1.987              7.930
 Vibration     2          0.593              1.985              6.162
 Vibration     3          0.594              1.982              5.520
 Vibration     4          0.596              1.975              4.622
 Vibration     5          0.596              1.974              4.531
 Vibration     6          0.599              1.964              3.958
 Vibration     7          0.603              1.951              3.495
 Vibration     8          0.612              1.921              2.914
 Vibration     9          0.618              1.904              2.690
 Vibration    10          0.629              1.868              2.335
 Vibration    11          0.638              1.839              2.127
 Vibration    12          0.657              1.780              1.805
 Vibration    13          0.671              1.738              1.631
 Vibration    14          0.681              1.707              1.522
 Vibration    15          0.694              1.671              1.408
 Vibration    16          0.704              1.641              1.326
 Vibration    17          0.713              1.614              1.255
 Vibration    18          0.724              1.583              1.183
 Vibration    19          0.745              1.525              1.062
 Vibration    20          0.755              1.500              1.015
 Vibration    21          0.788              1.412              0.869
 Vibration    22          0.829              1.313              0.732
 Vibration    23          0.833              1.302              0.719
 Vibration    24          0.859              1.241              0.648
 Vibration    25          0.908              1.133              0.538
 Vibration    26          0.972              1.006              0.429

 Optimization completed on the basis of negligible forces.
    -- Stationary point found.
 Normal termination of Gaussian 16 at Fri Dec 11 00:07:10 2020.

 ----------------------------------------------------------------------
 # B3LYP/6-311++G(d,p) empiricaldispersion=gd3bj scf=xqc pop=npa geom=c
 heck
 ----------------------------------------------------------------------

 ---------------------------------------
 CID_141279114_JID_6575_Energie_neutraal
 ---------------------------------------
 Structure from the checkpoint file:  "JID_6575.chk"
 Charge =  0 Multiplicity = 1

 SCF Done:  E(RB3LYP) =  -674.972294995     A.U. after   14 cycles
 Normal termination of Gaussian 16 at Fri Dec 11 00:15:02 2020.

 ----------------------------------------------------------------------
 # B3LYP/6-311++G(d,p) empiricaldispersion=gd3bj scf=xqc pop=npa geom=c
 heck
 ----------------------------------------------------------------------

 -------------------------------------
 CID_141279114_JID_6575_Energie_kation
 -------------------------------------
 Structure from the checkpoint file:  "JID_6575.chk"
 Charge =  1 Multiplicity = 2

 SCF Done:  E(UB3LYP) =  -674.685259840     A.U. after   19 cycles
 Normal termination of Gaussian 16 at Fri Dec 11 00:29:54 2020.
 Gaussian 16:  ES64L-G16RevA.03 25-Dec-2016

 ----------------------------------------------------------------------
 # B3LYP/6-311++G(d,p) empiricaldispersion=gd3bj scf=xqc pop=npa geom=c
 heck
 ----------------------------------------------------------------------

 ------------------------------------
 CID_141279114_JID_6575_Energie_anion
 ------------------------------------
 Structure from the checkpoint file:  "JID_6575.chk"
 Charge = -1 Multiplicity = 2

                         Standard orientation:
 ---------------------------------------------------------------------
 Center     Atomic      Atomic             Coordinates (Angstroms)
 Number     Number       Type             X           Y           Z
 ---------------------------------------------------------------------
      1          6           0        5.254559    2.041877   -0.392763
      2          6           0        4.909719    0.614052   -0.826324
      3          6           0        4.361041   -0.265998    0.306984
      4          6           0        3.073813    0.251332    0.969438
      5          6           0        1.895898    0.472179    0.007924
      6          6           0        1.471706   -0.764508   -0.799634
      7          6           0        1.108300   -1.999403    0.036373
      8          6           0       -0.033137   -1.764308    1.045403
      9          6           0       -1.286040   -1.284537    0.381430
     10          7           0       -2.004603   -1.960796   -0.498781
     11          6           0       -3.034001   -1.119245   -0.868595
     12          6           0       -2.940361    0.087225   -0.213661
     13          7           0       -1.811918   -0.035782    0.574964
     14          6           0       -3.727371    1.363652   -0.228323
     15          6           0       -5.144682    1.145188   -0.772150
     16          7           0       -3.668520    1.952154    1.125935
     17          1           0        4.364823    2.592878   -0.068259
     18          1           0        5.709624    2.606008   -1.214512
     19          1           0        5.964410    2.038387    0.443881
     20          1           0        4.187058    0.648482   -1.652079
     21          1           0        5.809095    0.134231   -1.234152
     22          1           0        4.188493   -1.277337   -0.083521
     23          1           0        5.133777   -0.368634    1.081797
     24          1           0        2.778841   -0.458623    1.753484
     25          1           0        3.283752    1.195310    1.488710
     26          1           0        1.038228    0.843293    0.584535
     27          1           0        2.143421    1.278005   -0.695128
     28          1           0        0.609584   -0.497721   -1.423521
     29          1           0        2.274835   -1.040278   -1.494874
     30          1           0        0.797638   -2.802312   -0.641228
     31          1           0        1.987746   -2.364908    0.581581
     32          1           0       -0.241532   -2.703751    1.570661
     33          1           0        0.274227   -1.038420    1.807862
     34          1           0       -3.780406   -1.431535   -1.586384
     35          1           0       -1.518865    0.676814    1.229460
     36          1           0       -3.219887    2.089454   -0.882238
     37          1           0       -5.692325    0.435538   -0.141415
     38          1           0       -5.695936    2.092057   -0.793100
     39          1           0       -5.122876    0.744290   -1.791749
     40          1           0       -4.103152    2.874266    1.111785
     41          1           0       -4.231963    1.380442    1.756962
 ---------------------------------------------------------------------

 SCF Done:  E(UB3LYP) =  -674.962707073     A.U. after   32 cycles

 The electronic state is 2-A.
 Alpha  occ. eigenvalues --  -14.26222 -14.20235 -14.19286 -10.13039 -10.11838
 Alpha  occ. eigenvalues --  -10.10186 -10.09081 -10.08322 -10.08081 -10.08053
 Alpha  occ. eigenvalues --  -10.07841 -10.07593 -10.07480 -10.07424 -10.07295
 Alpha  occ. eigenvalues --  -10.06912  -0.91693  -0.80194  -0.76669  -0.73292
 Alpha  occ. eigenvalues --   -0.71004  -0.67772  -0.65787  -0.63053  -0.60617
 Alpha  occ. eigenvalues --   -0.57697  -0.54219  -0.53523  -0.50947  -0.49573
 Alpha  occ. eigenvalues --   -0.47064  -0.45109  -0.42805  -0.40394  -0.39644
 Alpha  occ. eigenvalues --   -0.38748  -0.36733  -0.36114  -0.34815  -0.34330
 Alpha  occ. eigenvalues --   -0.33056  -0.32590  -0.32520  -0.31772  -0.31334
 Alpha  occ. eigenvalues --   -0.30797  -0.30219  -0.28822  -0.28443  -0.27838
 Alpha  occ. eigenvalues --   -0.26632  -0.26365  -0.25344  -0.25196  -0.24781
 Alpha  occ. eigenvalues --   -0.22948  -0.22263  -0.22218  -0.18625  -0.17814
 Alpha  occ. eigenvalues --   -0.15963  -0.12447   0.03829
 Alpha virt. eigenvalues --    0.05121   0.06558   0.06886   0.07470   0.07835
 Alpha virt. eigenvalues --    0.08064   0.08649   0.09167   0.09512   0.10082
 Alpha virt. eigenvalues --    0.10290   0.10562   0.11019   0.11492   0.11670

  Beta  occ. eigenvalues --  -14.26201 -14.20179 -14.19285 -10.13036 -10.11821
  Beta  occ. eigenvalues --  -10.10189 -10.09072 -10.08306 -10.08077 -10.08041
  Beta  occ. eigenvalues --  -10.07832 -10.07582 -10.07477 -10.07411 -10.07269
  Beta  occ. eigenvalues --  -10.06877  -0.91676  -0.80117  -0.76633  -0.73275
  Beta  occ. eigenvalues --   -0.70984  -0.67738  -0.65736  -0.63017  -0.60583
  Beta  occ. eigenvalues --   -0.57662  -0.54167  -0.53468  -0.50909  -0.49538
  Beta  occ. eigenvalues --   -0.47027  -0.45074  -0.42771  -0.40344  -0.39624
  Beta  occ. eigenvalues --   -0.38714  -0.36711  -0.36073  -0.34772  -0.34299
  Beta  occ. eigenvalues --   -0.33027  -0.32565  -0.32490  -0.31731  -0.31312
  Beta  occ. eigenvalues --   -0.30765  -0.30197  -0.28797  -0.28416  -0.27788
  Beta  occ. eigenvalues --   -0.26606  -0.26318  -0.25321  -0.25175  -0.24765
  Beta  occ. eigenvalues --   -0.22933  -0.22241  -0.22196  -0.18593  -0.17805
  Beta  occ. eigenvalues --   -0.15912  -0.12408
  Beta virt. eigenvalues --    0.05595   0.06386   0.06770   0.07090   0.07790
  Beta virt. eigenvalues --    0.08280   0.08388   0.08986   0.09376   0.09701
  Beta virt. eigenvalues --    0.10293   0.10441   0.10746   0.11313   0.11572

 Mulliken charges and spin densities:
               1          2
     1  C    0.640084  -1.288199
     2  C   -0.646700   0.476292
     3  C   -0.019481  -0.233167
     4  C    0.044405  -0.324810
     5  C   -0.013375  -0.365156
     6  C   -0.039074   0.118254
     7  C   -0.599108   0.114100
     8  C    0.617798  -1.139255
     9  C    0.098236  -0.537704
    10  N   -0.024785   0.057762
    11  C   -0.467668   0.409982
    12  C    2.053975  -1.768238
    13  N   -0.151080   0.120116
    14  C   -2.134201   1.770852
    15  C    0.516599  -1.112370
    16  N   -0.243868  -0.091302
    17  H   -0.074392   0.216774
    18  H   -0.131204   0.265366
    19  H   -0.092016   0.226740
    20  H    0.105466   0.022534
    21  H   -0.183220   0.334772
    22  H    0.075070   0.043820
    23  H   -0.167558   0.325273
    24  H    0.046178   0.097630
    25  H   -0.042917   0.210745
    26  H    0.029097   0.087136
    27  H   -0.010594   0.184715
    28  H    0.187193  -0.026432
    29  H    0.060947   0.124793
    30  H    0.174159  -0.002775
    31  H    0.116068   0.029133
    32  H    0.126218   0.055469
    33  H    0.014640   0.136284
    34  H    0.009457   0.145218
    35  H    0.209417   0.133678
    36  H   -0.155979   0.352453
    37  H    0.049495   0.100852
    38  H   -0.717372   0.876247
    39  H    0.056846   0.074124
    40  H   -0.328756   0.582092
    41  H    0.012000   0.196204
 Sum of Mulliken charges =  -1.00000   1.00000

 Dipole moment (field-independent basis, Debye):
    X=              3.2762    Y=             -5.6668    Z=             -0.5360  Tot=              6.5676
 Quadrupole moment (field-independent basis, Debye-Ang):
   XX=           -225.7848   YY=           -156.8580   ZZ=           -132.0554
   XY=             10.6854   XZ=              2.4600   YZ=             -4.9242

 Summary of Natural Population Analysis:

                                       Natural Population
                Natural  -----------------------------------------------
    Atom  No    Charge         Core      Valence    Rydberg      Total
 -----------------------------------------------------------------------
      C    1   -0.28637      0.99967     2.28230    0.00440     3.28637
      C    2   -0.19346      0.99964     2.18532    0.00849     3.19346
      C    3   -0.19156      0.99963     2.18290    0.00904     3.19156
      C    4   -0.19401      0.99963     2.18568    0.00870     3.19401
      C    5   -0.19467      0.99963     2.18604    0.00900     3.19467
      C    6   -0.19472      0.99962     2.18789    0.00721     3.19472
      C    7   -0.18559      0.99963     2.17858    0.00738     3.18559
      C    8   -0.21104      0.99959     2.20273    0.00872     3.21104
      C    9    0.18597      0.99963     1.79553    0.01888     2.81403
      N   10   -0.26641      0.99970     2.75759    0.00913     3.76641
      C   11   -0.03270      0.99951     2.02115    0.01205     3.03270
      C   12    0.04984      0.99952     1.93628    0.01436     2.95016
      N   13   -0.26970      0.99962     2.76195    0.00814     3.76970
      C   14   -0.02834      0.99958     2.01624    0.01252     3.02834
      C   15   -0.28882      0.99966     2.28330    0.00586     3.28882
      N   16   -0.42454      0.99978     2.91371    0.01105     3.92454
      H   17    0.09763      0.00000     0.40127    0.00110     0.40237
      H   18    0.09837      0.00000     0.40064    0.00098     0.40163
      H   19    0.09558      0.00000     0.40315    0.00126     0.40442
      H   20    0.09365      0.00000     0.40522    0.00113     0.40635
      H   21    0.09496      0.00000     0.40405    0.00100     0.40504
      H   22    0.09455      0.00000     0.40435    0.00110     0.40545
      H   23    0.09569      0.00000     0.40335    0.00097     0.40431
      H   24    0.09508      0.00000     0.40380    0.00113     0.40492
      H   25    0.09864      0.00000     0.40031    0.00106     0.40136
      H   26    0.09678      0.00000     0.40183    0.00138     0.40322
      H   27    0.09820      0.00000     0.40075    0.00105     0.40180
      H   28    0.10341      0.00000     0.39548    0.00111     0.39659
      H   29    0.09547      0.00000     0.40345    0.00109     0.40453
      H   30    0.10341      0.00000     0.39547    0.00113     0.39659
      H   31    0.09350      0.00000     0.40540    0.00110     0.40650
      H   32    0.10781      0.00000     0.39118    0.00100     0.39219
      H   33    0.10111      0.00000     0.39767    0.00121     0.39889
      H   34    0.09603      0.00000     0.40278    0.00119     0.40397
      H   35    0.21393      0.00000     0.28354    0.00254     0.28607
      H   36    0.09651      0.00000     0.40118    0.00231     0.40349
      H   37    0.09779      0.00000     0.40092    0.00128     0.40221
      H   38    0.10292      0.00000     0.39528    0.00180     0.39708
      H   39    0.09977      0.00000     0.39921    0.00103     0.40023
      H   40    0.18206      0.00000     0.31168    0.00626     0.31794
      H   41    0.17328      0.00000     0.32424    0.00247     0.32672
 =======================================================================
   * Total *   -0.00000     15.99402    45.81338    0.19260    62.00000

 Normal termination of Gaussian 16 at Fri Dec 11 00:55:11 2020.
