 Gaussian 16, Revision A.03,

 -----------------------------------------------------------
 # opt freq B3LYP/6-31G(d) empiricaldispersion=gd3bj scf=xqc
 -----------------------------------------------------------

 --------------------------------
 CID_107709171_JID_10061_neutraal
 --------------------------------
 Symbolic Z-matrix:
 Charge =  0 Multiplicity = 1

 SCF Done:  E(RB3LYP) =  -885.579448768     A.U. after   14 cycles
 SCF Done:  E(RB3LYP) =  -885.583604069     A.U. after   12 cycles
 SCF Done:  E(RB3LYP) =  -885.584465493     A.U. after   12 cycles
 SCF Done:  E(RB3LYP) =  -885.584808547     A.U. after   12 cycles
 SCF Done:  E(RB3LYP) =  -885.584894882     A.U. after   11 cycles
 SCF Done:  E(RB3LYP) =  -885.584938049     A.U. after   10 cycles
 SCF Done:  E(RB3LYP) =  -885.584965966     A.U. after   10 cycles
 SCF Done:  E(RB3LYP) =  -885.584994675     A.U. after   11 cycles
 SCF Done:  E(RB3LYP) =  -885.585018562     A.U. after   11 cycles
 SCF Done:  E(RB3LYP) =  -885.585032338     A.U. after   11 cycles
 SCF Done:  E(RB3LYP) =  -885.585034951     A.U. after    9 cycles
 SCF Done:  E(RB3LYP) =  -885.585035186     A.U. after    8 cycles
 SCF Done:  E(RB3LYP) =  -885.585035283     A.U. after    7 cycles
 SCF Done:  E(RB3LYP) =  -885.585035278     A.U. after    6 cycles
 Optimization completed.
    -- Stationary point found.
 Normal termination of Gaussian 16 at Sun Dec 13 12:43:06 2020.

 --------------------------------------------------------------------
 #N Geom=AllCheck Guess=TCheck SCRF=Check GenChk RB3LYP/6-31G(d) Freq
 --------------------------------------------------------------------

 Structure from the checkpoint file:  "JID_10061.chk"
 --------------------------------
 CID_107709171_JID_10061_neutraal
 --------------------------------
 Charge =  0 Multiplicity = 1

 SCF Done:  E(RB3LYP) =  -885.585035278     A.U. after    1 cycles

  Exact polarizability: 228.481 -27.115 177.503  -3.875   6.744 147.605
 Approx polarizability: 300.439 -44.288 277.356 -11.433  17.311 253.422

                      1                      2                      3
                      A                      A                      A
 Frequencies --     17.7385                24.4529                35.0300
 Red. masses --      5.2010                 4.9610                 3.4923
 Frc consts  --      0.0010                 0.0017                 0.0025
 IR Inten    --      0.0694                 1.2132                 0.0781

                      4                      5                      6
                      A                      A                      A
 Frequencies --     56.6333                64.1623                78.7219
 Red. masses --      4.4344                 5.7329                 3.7469
 Frc consts  --      0.0084                 0.0139                 0.0137
 IR Inten    --      0.7393                 0.7885                 0.3642

                      7                      8                      9
                      A                      A                      A
 Frequencies --     90.3922               123.6216               134.2421
 Red. masses --      3.6176                 2.2427                 2.8857
 Frc consts  --      0.0174                 0.0202                 0.0306
 IR Inten    --      0.3049                 0.4621                 1.2412

                     10                     11                     12
                      A                      A                      A
 Frequencies --    186.3172               197.6707               206.8670
 Red. masses --      3.9100                 2.7427                 5.0082
 Frc consts  --      0.0800                 0.0631                 0.1263
 IR Inten    --      1.2210                 0.8206                 0.9249

                     13                     14                     15
                      A                      A                      A
 Frequencies --    247.7803               264.9587               290.4796
 Red. masses --      1.2851                 3.8454                 3.9310
 Frc consts  --      0.0465                 0.1591                 0.1954
 IR Inten    --      0.1715                 0.9497                 2.5070

                     16                     17                     18
                      A                      A                      A
 Frequencies --    310.0661               345.4212               358.1895
 Red. masses --      3.3540                 1.8677                 2.0262
 Frc consts  --      0.1900                 0.1313                 0.1532
 IR Inten    --      4.2309                57.0345                53.3387

                     19                     20                     21
                      A                      A                      A
 Frequencies --    374.8684               384.4964               406.0177
 Red. masses --      2.9792                 2.7981                 1.4129
 Frc consts  --      0.2467                 0.2437                 0.1372
 IR Inten    --      3.7811                 4.6228               122.2472

                     22                     23                     24
                      A                      A                      A
 Frequencies --    432.0411               453.4099               458.4049
 Red. masses --      2.3343                 4.6168                 2.6909
 Frc consts  --      0.2567                 0.5592                 0.3332
 IR Inten    --     30.7066                 9.1305                32.4403

                     25                     26                     27
                      A                      A                      A
 Frequencies --    490.8176               514.3986               543.7973
 Red. masses --      3.5680                 4.5441                 4.4429
 Frc consts  --      0.5064                 0.7084                 0.7741
 IR Inten    --      1.9951                10.3566                 2.3021

                     28                     29                     30
                      A                      A                      A
 Frequencies --    567.3393               579.7219               615.4859
 Red. masses --      3.3901                 2.6856                 4.1232
 Frc consts  --      0.6429                 0.5318                 0.9203
 IR Inten    --      1.5553                 6.9440                 6.3362

                     31                     32                     33
                      A                      A                      A
 Frequencies --    629.2424               660.2889               720.1640
 Red. masses --      5.5072                 6.4726                 4.0571
 Frc consts  --      1.2847                 1.6626                 1.2397
 IR Inten    --      1.5413                 0.5105                 1.2213

                     34                     35                     36
                      A                      A                      A
 Frequencies --    733.7270               754.1011               763.2746
 Red. masses --      3.5699                 2.1546                 2.4303
 Frc consts  --      1.1323                 0.7219                 0.8342
 IR Inten    --      1.7452                 1.6098                 7.5567

                     37                     38                     39
                      A                      A                      A
 Frequencies --    789.5431               829.0193               835.6842
 Red. masses --      1.8591                 2.2845                 1.6128
 Frc consts  --      0.6828                 0.9251                 0.6636
 IR Inten    --     32.1361                 9.6847                 6.4206

                     40                     41                     42
                      A                      A                      A
 Frequencies --    842.0597               848.1358               884.1442
 Red. masses --      1.5337                 1.5507                 2.1343
 Frc consts  --      0.6407                 0.6572                 0.9830
 IR Inten    --     23.1544                 5.9487                 1.4271

                     43                     44                     45
                      A                      A                      A
 Frequencies --    887.5974               898.6413               913.3154
 Red. masses --      1.9023                 3.1407                 1.9678
 Frc consts  --      0.8830                 1.4943                 0.9671
 IR Inten    --     10.5166                28.4139                10.8221

                     46                     47                     48
                      A                      A                      A
 Frequencies --    942.4833               955.7921               958.7725
 Red. masses --      1.4127                 1.7429                 1.3509
 Frc consts  --      0.7393                 0.9381                 0.7316
 IR Inten    --      4.1297                 2.5515                 1.3970

                     49                     50                     51
                      A                      A                      A
 Frequencies --    959.7425               987.3357              1038.0984
 Red. masses --      1.3311                 1.2534                 2.6438
 Frc consts  --      0.7224                 0.7199                 1.6787
 IR Inten    --      0.3747                 0.0501                 4.9271

                     52                     53                     54
                      A                      A                      A
 Frequencies --   1049.8444              1055.4793              1058.3973
 Red. masses --      3.7378                 2.2879                 1.6841
 Frc consts  --      2.4272                 1.5017                 1.1115
 IR Inten    --     26.4612                42.6349                12.6389

                     55                     56                     57
                      A                      A                      A
 Frequencies --   1070.7536              1086.2816              1102.1609
 Red. masses --      2.0202                 3.9107                 1.9099
 Frc consts  --      1.3646                 2.7189                 1.3670
 IR Inten    --     20.9102                77.3714                 3.6427

                     58                     59                     60
                      A                      A                      A
 Frequencies --   1118.6575              1140.1267              1144.9638
 Red. masses --      1.7873                 2.0127                 1.3137
 Frc consts  --      1.3178                 1.5415                 1.0147
 IR Inten    --     27.6663                 5.2513                12.3379

                     61                     62                     63
                      A                      A                      A
 Frequencies --   1188.4956              1201.1938              1206.5778
 Red. masses --      1.1302                 1.2814                 1.3450
 Frc consts  --      0.9406                 1.0894                 1.1537
 IR Inten    --      1.2488                14.1206                 4.5493

                     64                     65                     66
                      A                      A                      A
 Frequencies --   1209.7494              1236.1662              1238.5183
 Red. masses --      1.5822                 1.5081                 2.0018
 Frc consts  --      1.3643                 1.3578                 1.8091
 IR Inten    --     29.3433                12.9582                 5.0406

                     67                     68                     69
                      A                      A                      A
 Frequencies --   1242.0028              1269.6182              1283.8024
 Red. masses --      2.4898                 1.7033                 2.9574
 Frc consts  --      2.2629                 1.6177                 2.8718
 IR Inten    --      3.3964                87.5764               349.1335

                     70                     71                     72
                      A                      A                      A
 Frequencies --   1299.0471              1311.2907              1343.9078
 Red. masses --      1.3536                 1.3918                 2.1950
 Frc consts  --      1.3458                 1.4100                 2.3357
 IR Inten    --     29.5079                17.3957                 8.5986

                     73                     74                     75
                      A                      A                      A
 Frequencies --   1347.2256              1365.5298              1371.0182
 Red. masses --      2.3618                 2.6271                 1.4186
 Frc consts  --      2.5256                 2.8863                 1.5710
 IR Inten    --      3.3912                14.0634                23.0734

                     76                     77                     78
                      A                      A                      A
 Frequencies --   1374.5837              1407.9361              1416.6628
 Red. masses --      1.6131                 1.2504                 1.4986
 Frc consts  --      1.7958                 1.4604                 1.7721
 IR Inten    --     15.6571                 2.3070                38.6945

                     79                     80                     81
                      A                      A                      A
 Frequencies --   1426.2624              1437.1132              1446.9644
 Red. masses --      1.4388                 1.2432                 1.2538
 Frc consts  --      1.7245                 1.5127                 1.5467
 IR Inten    --      9.8813                62.4395                 3.8113

                     82                     83                     84
                      A                      A                      A
 Frequencies --   1470.8056              1500.5648              1509.5736
 Red. masses --      2.9039                 2.2804                 1.1076
 Frc consts  --      3.7011                 3.0254                 1.4871
 IR Inten    --      4.2036                30.8775                 5.2755

                     85                     86                     87
                      A                      A                      A
 Frequencies --   1516.6001              1529.2620              1530.9884
 Red. masses --      1.1003                 1.0514                 2.2485
 Frc consts  --      1.4911                 1.4488                 3.1051
 IR Inten    --      7.8168                 2.8114                92.5729

                     88                     89                     90
                      A                      A                      A
 Frequencies --   1534.4322              1537.2733              1558.9170
 Red. masses --      1.1048                 1.1015                 2.4914
 Frc consts  --      1.5326                 1.5337                 3.5673
 IR Inten    --      1.6324                 5.9830               135.3070

                     91                     92                     93
                      A                      A                      A
 Frequencies --   1637.7427              1640.4902              1662.3759
 Red. masses --      6.7548                 5.9937                 6.2997
 Frc consts  --     10.6746                 9.5037                10.2572
 IR Inten    --      3.7229                12.9009                30.0235

                     94                     95                     96
                      A                      A                      A
 Frequencies --   1675.2516              2995.6662              3044.8213
 Red. masses --      5.9750                 1.0713                 1.0777
 Frc consts  --      9.8798                 5.6645                 5.8868
 IR Inten    --     34.5353                58.9417                13.8608

                     97                     98                     99
                      A                      A                      A
 Frequencies --   3050.4592              3052.7996              3056.7182
 Red. masses --      1.0604                 1.0644                 1.0370
 Frc consts  --      5.8135                 5.8445                 5.7089
 IR Inten    --     28.7890                32.4516                27.0385

                    100                    101                    102
                      A                      A                      A
 Frequencies --   3090.6489              3095.9419              3105.2298
 Red. masses --      1.1034                 1.1016                 1.0959
 Frc consts  --      6.2099                 6.2210                 6.2257
 IR Inten    --     17.7789                25.2031                62.5722

                    103                    104                    105
                      A                      A                      A
 Frequencies --   3123.0976              3128.9579              3183.2241
 Red. masses --      1.1026                 1.1024                 1.0889
 Frc consts  --      6.3364                 6.3593                 6.5006
 IR Inten    --     46.3216                41.6505                16.5987

                    106                    107                    108
                      A                      A                      A
 Frequencies --   3188.8188              3191.0903              3204.2415
 Red. masses --      1.0892                 1.0858                 1.0900
 Frc consts  --      6.5256                 6.5144                 6.5937
 IR Inten    --     10.7069                 1.7190                15.4932

                    109                    110                    111
                      A                      A                      A
 Frequencies --   3214.5642              3216.7032              3220.1037
 Red. masses --      1.0927                 1.0932                 1.0967
 Frc consts  --      6.6525                 6.6644                 6.6999
 IR Inten    --     13.2473                 6.3362                11.4168

                    112                    113                    114
                      A                      A                      A
 Frequencies --   3225.6096              3716.6388              3735.4656
 Red. masses --      1.0917                 1.0654                 1.0661
 Frc consts  --      6.6926                 8.6712                 8.7648
 IR Inten    --      3.7892                23.2449                 7.1746

 - Thermochemistry -
 -------------------
 Temperature   298.150 Kelvin.  Pressure   1.00000 Atm.
 Atom     1 has atomic number  6 and mass  12.00000

 Molecular mass:   272.14124 amu.
 Principal axes and moments of inertia in atomic units:
                           1         2         3
     Eigenvalues --  3045.09523********************
           X            0.99999   0.00198   0.00285
           Y           -0.00206   0.99960   0.02826
           Z           -0.00280  -0.02827   0.99960
 This molecule is an asymmetric top.
 Rotational symmetry number  1.
 Warning -- assumption of classical behavior for rotation
           may cause significant error
 Rotational temperatures (Kelvin)      0.02844     0.00866     0.00784
 Rotational constants (GHZ):           0.59267     0.18044     0.16344
 Zero-point vibrational energy     886912.1 (Joules/Mol)
                                  211.97707 (Kcal/Mol)
 Warning -- explicit consideration of  30 degrees of freedom as
           vibrations may cause significant error
 Vibrational temperatures:     25.52    35.18    50.40    81.48    92.32
          (Kelvin)            113.26   130.05   177.86   193.14   268.07
                              284.40   297.64   356.50   381.22   417.94
                              446.12   496.98   515.35   539.35   553.20
                              584.17   621.61   652.36   659.54   706.18
                              740.10   782.40   816.27   834.09   885.55
                              905.34   950.01  1036.16  1055.67  1084.98
                             1098.18  1135.98  1192.77  1202.36  1211.54
                             1220.28  1272.09  1277.05  1292.94  1314.06
                             1356.02  1375.17  1379.46  1380.86  1420.56
                             1493.59  1510.49  1518.60  1522.80  1540.58
                             1562.92  1585.76  1609.50  1640.39  1647.35
                             1709.98  1728.25  1736.00  1740.56  1778.57
                             1781.95  1786.96  1826.70  1847.11  1869.04
                             1886.65  1933.58  1938.36  1964.69  1972.59
                             1977.72  2025.71  2038.26  2052.07  2067.69
                             2081.86  2116.16  2158.98  2171.94  2182.05
                             2200.27  2202.75  2207.71  2211.79  2242.93
                             2356.35  2360.30  2391.79  2410.31  4310.10
                             4380.82  4388.93  4392.30  4397.94  4446.75
                             4454.37  4467.73  4493.44  4501.87  4579.95
                             4588.00  4591.27  4610.19  4625.04  4628.12
                             4633.01  4640.93  5347.41  5374.50

 Zero-point correction=                           0.337807 (Hartree/Particle)
 Thermal correction to Energy=                    0.356927
 Thermal correction to Enthalpy=                  0.357872
 Thermal correction to Gibbs Free Energy=         0.288107
 Sum of electronic and zero-point Energies=           -885.247228
 Sum of electronic and thermal Energies=              -885.228108
 Sum of electronic and thermal Enthalpies=            -885.227164
 Sum of electronic and thermal Free Energies=         -885.296928

                     E (Thermal)             CV                S
                      KCal/Mol        Cal/Mol-Kelvin    Cal/Mol-Kelvin
 Total                  223.975             73.383            146.831
 Electronic               0.000              0.000              0.000
 Translational            0.889              2.981             42.702
 Rotational               0.889              2.981             34.174
 Vibrational            222.198             67.421             69.954
 Vibration     1          0.593              1.986              6.872
 Vibration     2          0.593              1.985              6.235
 Vibration     3          0.594              1.982              5.522
 Vibration     4          0.596              1.975              4.571
 Vibration     5          0.597              1.971              4.325
 Vibration     6          0.600              1.963              3.922
 Vibration     7          0.602              1.956              3.652
 Vibration     8          0.610              1.929              3.043
 Vibration     9          0.613              1.919              2.884
 Vibration    10          0.632              1.859              2.264
 Vibration    11          0.637              1.843              2.155
 Vibration    12          0.641              1.830              2.071
 Vibration    13          0.661              1.766              1.746
 Vibration    14          0.671              1.737              1.629
 Vibration    15          0.686              1.691              1.471
 Vibration    16          0.699              1.655              1.362
 Vibration    17          0.724              1.585              1.187
 Vibration    18          0.733              1.558              1.130
 Vibration    19          0.746              1.524              1.060
 Vibration    20          0.753              1.503              1.021
 Vibration    21          0.771              1.457              0.941
 Vibration    22          0.793              1.400              0.852
 Vibration    23          0.812              1.353              0.786
 Vibration    24          0.816              1.342              0.771
 Vibration    25          0.847              1.270              0.681
 Vibration    26          0.869              1.218              0.623
 Vibration    27          0.899              1.153              0.557
 Vibration    28          0.923              1.102              0.509
 Vibration    29          0.936              1.075              0.486
 Vibration    30          0.975              0.999              0.424

 Optimization completed.
    -- Stationary point found.
 Normal termination of Gaussian 16 at Sun Dec 13 13:06:53 2020.

 ----------------------------------------------------------------------
 # B3LYP/6-311++G(d,p) empiricaldispersion=gd3bj scf=xqc pop=npa geom=c
 heck
 ----------------------------------------------------------------------

 ----------------------------------------
 CID_107709171_JID_10061_Energie_neutraal
 ----------------------------------------
 Structure from the checkpoint file:  "JID_10061.chk"
 Charge =  0 Multiplicity = 1

 SCF Done:  E(RB3LYP) =  -885.841414572     A.U. after   15 cycles
 Normal termination of Gaussian 16 at Sun Dec 13 13:17:22 2020.

 ----------------------------------------------------------------------
 # B3LYP/6-311++G(d,p) empiricaldispersion=gd3bj scf=xqc pop=npa geom=c
 heck
 ----------------------------------------------------------------------

 --------------------------------------
 CID_107709171_JID_10061_Energie_kation
 --------------------------------------
 Structure from the checkpoint file:  "JID_10061.chk"
 Charge =  1 Multiplicity = 2

 SCF Done:  E(UB3LYP) =  -885.545823787     A.U. after   25 cycles
 Normal termination of Gaussian 16 at Sun Dec 13 13:43:18 2020.
 Gaussian 16:  ES64L-G16RevA.03 25-Dec-2016

 ----------------------------------------------------------------------
 # B3LYP/6-311++G(d,p) empiricaldispersion=gd3bj scf=xqc pop=npa geom=c
 heck
 ----------------------------------------------------------------------

 -------------------------------------
 CID_107709171_JID_10061_Energie_anion
 -------------------------------------
 Structure from the checkpoint file:  "JID_10061.chk"
 Charge = -1 Multiplicity = 2

                         Standard orientation:
 ---------------------------------------------------------------------
 Center     Atomic      Atomic             Coordinates (Angstroms)
 Number     Number       Type             X           Y           Z
 ---------------------------------------------------------------------
      1          6           0       -3.073689   -2.322374   -1.285971
      2          6           0       -3.184823   -2.194486    0.233611
      3          6           0       -2.172021   -1.221696    0.847389
      4          6           0       -2.378969    0.203213    0.360346
      5          6           0       -3.353690    1.012666    0.955412
      6          6           0       -3.589274    2.310841    0.505045
      7          6           0       -2.845953    2.825946   -0.558357
      8          6           0       -1.864580    2.040010   -1.160977
      9          6           0       -1.643041    0.744518   -0.700183
     10          8           0       -0.695973   -0.033190   -1.359224
     11          6           0        0.551731   -0.165526   -0.790844
     12          6           0        0.985482    0.574325    0.310174
     13          6           0        2.271329    0.360309    0.811968
     14          6           0        3.138198   -0.577876    0.238025
     15          6           0        2.676557   -1.301310   -0.871758
     16          6           0        1.398716   -1.107125   -1.382952
     17          6           0        4.551099   -0.738409    0.744508
     18          6           0        5.508429    0.269698    0.082918
     19          8           0        5.143226    1.615910    0.339844
     20          8           0       -2.347487   -1.310881    2.263574
     21          1           0       -3.284747   -1.370781   -1.784424
     22          1           0       -3.785845   -3.064455   -1.661757
     23          1           0       -2.067743   -2.634859   -1.586919
     24          1           0       -4.191296   -1.862045    0.517208
     25          1           0       -3.024556   -3.168033    0.712004
     26          1           0       -1.162375   -1.555841    0.576881
     27          1           0       -3.918644    0.603802    1.787228
     28          1           0       -4.352628    2.918793    0.981791
     29          1           0       -3.024808    3.835487   -0.916442
     30          1           0       -1.265714    2.410329   -1.986762
     31          1           0        0.330912    1.306996    0.768094
     32          1           0        2.603827    0.931442    1.675023
     33          1           0        3.328541   -2.035837   -1.338345
     34          1           0        1.036165   -1.673904   -2.234377
     35          1           0        4.584712   -0.583564    1.829078
     36          1           0        4.915407   -1.754088    0.545259
     37          1           0        6.516930    0.148982    0.490796
     38          1           0        5.557820    0.069439   -0.999850
     39          1           0        4.253194    1.740491   -0.028800
     40          1           0       -1.700287   -0.713409    2.670630
 ---------------------------------------------------------------------

 SCF Done:  E(UB3LYP) =  -885.832680317     A.U. after   33 cycles
 SCF Done:  E(UB3LYP) =  -885.832680317     a.u. after    1 cycles

 The electronic state is 2-A.
 Alpha  occ. eigenvalues --  -19.05671 -19.02862 -19.02465 -10.13089 -10.13013
 Alpha  occ. eigenvalues --  -10.12532 -10.11704 -10.07514 -10.07207 -10.07148
 Alpha  occ. eigenvalues --  -10.07093 -10.07055 -10.06986 -10.06881 -10.06836
 Alpha  occ. eigenvalues --  -10.06702 -10.06642 -10.06334 -10.06274 -10.06213
 Alpha  occ. eigenvalues --   -0.97666  -0.93074  -0.92676  -0.76191  -0.74938
 Alpha  occ. eigenvalues --   -0.69363  -0.68278  -0.65111  -0.64957  -0.64114
 Alpha  occ. eigenvalues --   -0.61044  -0.57839  -0.54266  -0.52241  -0.51744
 Alpha  occ. eigenvalues --   -0.50246  -0.47907  -0.46885  -0.44350  -0.42067
 Alpha  occ. eigenvalues --   -0.41141  -0.39926  -0.38818  -0.37493  -0.37208
 Alpha  occ. eigenvalues --   -0.35975  -0.34611  -0.34457  -0.33861  -0.33295
 Alpha  occ. eigenvalues --   -0.31957  -0.31687  -0.31419  -0.30493  -0.29848
 Alpha  occ. eigenvalues --   -0.28342  -0.28033  -0.26867  -0.26726  -0.26206
 Alpha  occ. eigenvalues --   -0.25866  -0.25430  -0.24202  -0.23660  -0.22956
 Alpha  occ. eigenvalues --   -0.22858  -0.22108  -0.18866  -0.18161  -0.15750
 Alpha  occ. eigenvalues --   -0.15347  -0.14679  -0.12167   0.04524
 Alpha virt. eigenvalues --    0.06311   0.06756   0.07106   0.07759   0.08179
 Alpha virt. eigenvalues --    0.08287   0.08574   0.08774   0.09036   0.09622
 Alpha virt. eigenvalues --    0.10054   0.10385   0.10517   0.10823   0.11384

  Beta  occ. eigenvalues --  -19.05675 -19.02847 -19.02463 -10.13095 -10.13044
  Beta  occ. eigenvalues --  -10.12542 -10.11680 -10.07559 -10.07154 -10.07090
  Beta  occ. eigenvalues --  -10.07079 -10.07035 -10.06843 -10.06792 -10.06784
  Beta  occ. eigenvalues --  -10.06621 -10.06574 -10.06258 -10.06179 -10.06110
  Beta  occ. eigenvalues --   -0.97666  -0.93039  -0.92669  -0.76031  -0.74777
  Beta  occ. eigenvalues --   -0.69266  -0.68206  -0.64964  -0.64719  -0.63950
  Beta  occ. eigenvalues --   -0.60935  -0.57755  -0.54225  -0.52008  -0.51569
  Beta  occ. eigenvalues --   -0.50108  -0.47823  -0.46799  -0.44267  -0.42016
  Beta  occ. eigenvalues --   -0.41108  -0.39866  -0.38735  -0.37428  -0.37137
  Beta  occ. eigenvalues --   -0.35896  -0.34550  -0.34372  -0.33788  -0.33210
  Beta  occ. eigenvalues --   -0.31881  -0.31627  -0.31370  -0.30431  -0.29709
  Beta  occ. eigenvalues --   -0.28261  -0.27975  -0.26836  -0.26547  -0.26118
  Beta  occ. eigenvalues --   -0.25692  -0.25260  -0.24160  -0.23571  -0.22898
  Beta  occ. eigenvalues --   -0.22736  -0.21923  -0.18754  -0.18132  -0.15076
  Beta  occ. eigenvalues --   -0.14729  -0.14173  -0.11864
  Beta virt. eigenvalues --    0.06574   0.07006   0.07199   0.07783   0.07979
  Beta virt. eigenvalues --    0.08365   0.08740   0.08890   0.09070   0.09403
  Beta virt. eigenvalues --    0.09634   0.10263   0.10388   0.10716   0.10878

 Mulliken charges and spin densities:
               1          2
     1  C   -0.418010  -0.195752
     2  C   -0.224776  -0.063884
     3  C   -0.082314  -0.060547
     4  C    0.383817   0.115169
     5  C   -0.289526   0.107044
     6  C   -0.530445  -0.027928
     7  C   -0.260734  -0.001159
     8  C    0.087413   0.043255
     9  C   -0.051274   0.047800
    10  O   -0.028658   0.007891
    11  C   -0.002814  -0.549465
    12  C   -0.076878   0.001035
    13  C   -0.540204   0.342806
    14  C    0.033757   0.739726
    15  C   -0.129688  -0.238617
    16  C    0.014982  -0.103446
    17  C    0.067052  -0.506231
    18  C    0.695229  -1.160785
    19  O   -0.303609   0.019074
    20  O   -0.212472   0.000267
    21  H    0.141298   0.009297
    22  H   -0.043551   0.178584
    23  H    0.065219   0.083432
    24  H    0.135731  -0.003221
    25  H    0.036634   0.120636
    26  H    0.246045  -0.041640
    27  H    0.175888  -0.004153
    28  H    0.099177   0.038037
    29  H    0.105774   0.025663
    30  H    0.140651   0.009518
    31  H    0.143742   0.051481
    32  H    0.127231   0.062539
    33  H   -0.379130   0.543079
    34  H    0.015351   0.139196
    35  H   -0.052991   0.218298
    36  H   -0.305398   0.456183
    37  H   -0.304061   0.464778
    38  H    0.032524   0.116461
    39  H    0.244762   0.008315
    40  H    0.244255   0.007261
 Sum of Mulliken charges =  -1.00000   1.00000

 Dipole moment (field-independent basis, Debye):
    X=             -6.0929    Y=              2.4200    Z=             -0.1527  Tot=              6.5577
 Quadrupole moment (field-independent basis, Debye-Ang):
   XX=           -224.0193   YY=           -155.4877   ZZ=           -143.1744
   XY=             -0.7054   XZ=             -3.1493   YZ=             -0.4176

 Summary of Natural Population Analysis:

                                       Natural Population
                Natural  -----------------------------------------------
    Atom  No    Charge         Core      Valence    Rydberg      Total
 -----------------------------------------------------------------------
      C    1   -0.28935      0.99966     2.28413    0.00556     3.28935
      C    2   -0.18936      0.99962     2.17999    0.00975     3.18936
      C    3    0.05506      0.99950     1.93121    0.01423     2.94494
      C    4   -0.03262      0.99942     2.02219    0.01101     3.03262
      C    5   -0.07741      0.99953     2.06892    0.00897     3.07741
      C    6   -0.11884      0.99957     2.10922    0.01004     3.11884
      C    7   -0.07728      0.99958     2.06764    0.01006     3.07728
      C    8   -0.10542      0.99950     2.09674    0.00917     3.10542
      C    9    0.14775      0.99930     1.83885    0.01411     2.85225
      O   10   -0.27749      0.99984     3.26731    0.01034     4.27749
      C   11    0.15404      0.99935     1.83327    0.01334     2.84596
      C   12   -0.13737      0.99951     2.13061    0.00725     3.13737
      C   13   -0.07784      0.99952     2.06908    0.00924     3.07784
      C   14   -0.04059      0.99950     2.02978    0.01131     3.04059
      C   15   -0.08768      0.99951     2.07834    0.00983     3.08768
      C   16   -0.10532      0.99952     2.09556    0.01024     3.10532
      C   17   -0.21036      0.99960     2.20015    0.01061     3.21036
      C   18   -0.00481      0.99960     1.99196    0.01325     3.00481
      O   19   -0.37285      0.99990     3.36620    0.00675     4.37285
      O   20   -0.37104      0.99990     3.36554    0.00561     4.37104
      H   21    0.10134      0.00000     0.39780    0.00086     0.39866
      H   22    0.09510      0.00000     0.40419    0.00071     0.40490
      H   23    0.10174      0.00000     0.39717    0.00109     0.39826
      H   24    0.09517      0.00000     0.40376    0.00107     0.40483
      H   25    0.09908      0.00000     0.39987    0.00105     0.40092
      H   26    0.09147      0.00000     0.40665    0.00188     0.40853
      H   27    0.10328      0.00000     0.39559    0.00113     0.39672
      H   28    0.09591      0.00000     0.40309    0.00100     0.40409
      H   29    0.09480      0.00000     0.40426    0.00094     0.40520
      H   30    0.10396      0.00000     0.39507    0.00096     0.39604
      H   31    0.10894      0.00000     0.38976    0.00131     0.39106
      H   32    0.09942      0.00000     0.39962    0.00096     0.40058
      H   33    0.09905      0.00000     0.39980    0.00115     0.40095
      H   34    0.10291      0.00000     0.39558    0.00150     0.39709
      H   35    0.10157      0.00000     0.39724    0.00120     0.39843
      H   36    0.10401      0.00000     0.39441    0.00158     0.39599
      H   37    0.08542      0.00000     0.41290    0.00168     0.41458
      H   38    0.07504      0.00000     0.42364    0.00132     0.42496
      H   39    0.23155      0.00000     0.26541    0.00304     0.26845
      H   40    0.22903      0.00000     0.26847    0.00250     0.27097
 =======================================================================
   * Total *   -0.00000     19.99143    52.78098    0.22758    73.00000

 Normal termination of Gaussian 16 at Sun Dec 13 14:18:21 2020.
