 Gaussian 16, Revision A.03,

 -----------------------------------------------------------
 # opt freq B3LYP/6-31G(d) empiricaldispersion=gd3bj scf=xqc
 -----------------------------------------------------------

 ------------------------------
 CID_91124309_JID_3134_neutraal
 ------------------------------
 Symbolic Z-matrix:
 Charge =  0 Multiplicity = 1

 SCF Done:  E(RB3LYP) =  -596.490547787     A.U. after   14 cycles
 SCF Done:  E(RB3LYP) =  -596.492515343     A.U. after   14 cycles
 SCF Done:  E(RB3LYP) =  -596.492749992     A.U. after   13 cycles
 SCF Done:  E(RB3LYP) =  -596.492509527     A.U. after   13 cycles
 SCF Done:  E(RB3LYP) =  -596.494709122     A.U. after   13 cycles
 SCF Done:  E(RB3LYP) =  -596.494890742     A.U. after   12 cycles
 SCF Done:  E(RB3LYP) =  -596.494810579     A.U. after   13 cycles
 SCF Done:  E(RB3LYP) =  -596.495030405     A.U. after   12 cycles
 SCF Done:  E(RB3LYP) =  -596.495059438     A.U. after   10 cycles
 SCF Done:  E(RB3LYP) =  -596.495069384     A.U. after   10 cycles
 SCF Done:  E(RB3LYP) =  -596.495070420     A.U. after    8 cycles
 SCF Done:  E(RB3LYP) =  -596.495070708     A.U. after    8 cycles
 SCF Done:  E(RB3LYP) =  -596.495070831     A.U. after    8 cycles
 SCF Done:  E(RB3LYP) =  -596.495070851     A.U. after    7 cycles
 Optimization completed.
    -- Stationary point found.
 Normal termination of Gaussian 16 at Wed Dec  9 22:28:41 2020.

 --------------------------------------------------------------------
 #N Geom=AllCheck Guess=TCheck SCRF=Check GenChk RB3LYP/6-31G(d) Freq
 --------------------------------------------------------------------

 Structure from the checkpoint file:  "JID_3134.chk"
 ------------------------------
 CID_91124309_JID_3134_neutraal
 ------------------------------
 Charge =  0 Multiplicity = 1

 SCF Done:  E(RB3LYP) =  -596.495070852     A.U. after    1 cycles

  Exact polarizability: 116.591   7.876 107.004   4.371  -0.380 113.473
 Approx polarizability: 150.098  14.313 152.944  19.117   9.045 191.659

                      1                      2                      3
                      A                      A                      A
 Frequencies --     39.4915                58.0004                76.7708
 Red. masses --      5.5835                 3.5915                 4.1120
 Frc consts  --      0.0051                 0.0071                 0.0143
 IR Inten    --      3.4901                 0.9178                 1.9192

                      4                      5                      6
                      A                      A                      A
 Frequencies --    106.6715               144.3096               146.8156
 Red. masses --      3.5233                 2.2723                 3.1060
 Frc consts  --      0.0236                 0.0279                 0.0394
 IR Inten    --      1.8985                 2.1874                 0.4161

                      7                      8                      9
                      A                      A                      A
 Frequencies --    202.3158               202.4067               249.3014
 Red. masses --      1.6549                 3.0852                 2.2071
 Frc consts  --      0.0399                 0.0745                 0.0808
 IR Inten    --      1.0630                 1.0195                 0.9634

                     10                     11                     12
                      A                      A                      A
 Frequencies --    264.9191               307.1835               319.7021
 Red. masses --      1.8423                 2.5385                 2.5942
 Frc consts  --      0.0762                 0.1411                 0.1562
 IR Inten    --      0.7349                 2.2122                 8.0062

                     13                     14                     15
                      A                      A                      A
 Frequencies --    409.0881               441.4966               455.4379
 Red. masses --      3.0680                 1.7744                 2.0406
 Frc consts  --      0.3025                 0.2038                 0.2494
 IR Inten    --      5.7819                 0.4412                 3.7045

                     16                     17                     18
                      A                      A                      A
 Frequencies --    464.8907               495.1574               517.7777
 Red. masses --      2.6103                 2.6221                 2.6607
 Frc consts  --      0.3324                 0.3788                 0.4203
 IR Inten    --      1.1595                 0.1314                 2.9182

                     19                     20                     21
                      A                      A                      A
 Frequencies --    543.6579               627.4548               659.0045
 Red. masses --      3.6835                 1.9670                 2.3231
 Frc consts  --      0.6414                 0.4563                 0.5944
 IR Inten    --      4.0313                17.6196                 1.0721

                     22                     23                     24
                      A                      A                      A
 Frequencies --    674.4167               785.8744               839.8001
 Red. masses --      3.9072                 3.3447                 2.7840
 Frc consts  --      1.0471                 1.2171                 1.1568
 IR Inten    --      2.0939                14.7482                 4.6583

                     25                     26                     27
                      A                      A                      A
 Frequencies --    856.1578               862.6784               893.0920
 Red. masses --      1.6891                 3.3959                 2.4168
 Frc consts  --      0.7295                 1.4890                 1.1357
 IR Inten    --      0.5299                15.8778                10.5200

                     28                     29                     30
                      A                      A                      A
 Frequencies --    905.6098               955.1923               986.7847
 Red. masses --      2.5441                 1.8908                 1.4965
 Frc consts  --      1.2293                 1.0164                 0.8585
 IR Inten    --      2.0538                 3.3382                38.2853

                     31                     32                     33
                      A                      A                      A
 Frequencies --    993.2440               997.8427              1041.9795
 Red. masses --      1.9377                 1.5401                 2.1136
 Frc consts  --      1.1263                 0.9035                 1.3520
 IR Inten    --     21.5609                47.6189                10.6799

                     34                     35                     36
                      A                      A                      A
 Frequencies --   1044.9726              1065.0097              1094.9861
 Red. masses --      1.0988                 2.0515                 1.8177
 Frc consts  --      0.7069                 1.3709                 1.2841
 IR Inten    --     40.7456                11.5739                16.4597

                     37                     38                     39
                      A                      A                      A
 Frequencies --   1099.6548              1112.4347              1136.3145
 Red. masses --      1.8679                 1.9796                 2.1360
 Frc consts  --      1.3308                 1.4434                 1.6250
 IR Inten    --     16.8041                13.7679                17.5534

                     40                     41                     42
                      A                      A                      A
 Frequencies --   1147.9106              1180.7288              1192.2802
 Red. masses --      6.1998                 2.3990                 2.3338
 Frc consts  --      4.8133                 1.9705                 1.9546
 IR Inten    --     70.6122                12.3015                 4.6524

                     43                     44                     45
                      A                      A                      A
 Frequencies --   1248.9563              1278.8982              1298.6069
 Red. masses --      1.1395                 1.5618                 1.7702
 Frc consts  --      1.0473                 1.5050                 1.7589
 IR Inten    --     14.8401                16.6994                59.0129

                     46                     47                     48
                      A                      A                      A
 Frequencies --   1312.2139              1330.2893              1332.8891
 Red. masses --      1.4254                 1.3405                 1.2261
 Frc consts  --      1.4461                 1.3977                 1.2834
 IR Inten    --      5.4402                 0.6596                 3.7542

                     49                     50                     51
                      A                      A                      A
 Frequencies --   1346.2699              1375.4812              1381.4898
 Red. masses --      1.2919                 1.2934                 1.3235
 Frc consts  --      1.3796                 1.4418                 1.4882
 IR Inten    --      1.6035                 0.5813                 4.5771

                     52                     53                     54
                      A                      A                      A
 Frequencies --   1388.4110              1407.2204              1410.1935
 Red. masses --      1.3728                 1.4368                 1.3072
 Frc consts  --      1.5591                 1.6764                 1.5316
 IR Inten    --      1.9262                32.6670                28.9100

                     55                     56                     57
                      A                      A                      A
 Frequencies --   1423.8933              1439.5831              1444.3753
 Red. masses --      1.2917                 1.3095                 1.2894
 Frc consts  --      1.5430                 1.5989                 1.5849
 IR Inten    --      2.4969                12.6099                 3.7012

                     58                     59                     60
                      A                      A                      A
 Frequencies --   1463.8474              1499.5366              1500.9701
 Red. masses --      1.2233                 1.0855                 1.0845
 Frc consts  --      1.5445                 1.4381                 1.4396
 IR Inten    --     17.7290                 6.6870                 6.0293

                     61                     62                     63
                      A                      A                      A
 Frequencies --   1515.6370              1520.9548              1526.8010
 Red. masses --      1.0843                 1.0553                 1.1045
 Frc consts  --      1.4675                 1.4383                 1.5170
 IR Inten    --      0.3432                 8.9927                 2.2258

                     64                     65                     66
                      A                      A                      A
 Frequencies --   1533.0510              1540.3027              1697.8949
 Red. masses --      1.0908                 1.0513                 4.3057
 Frc consts  --      1.5105                 1.4695                 7.3133
 IR Inten    --      3.4058                 7.1969                 3.1168

                     67                     68                     69
                      A                      A                      A
 Frequencies --   1752.6303              2977.4133              2987.5616
 Red. masses --     10.4727                 1.0710                 1.0710
 Frc consts  --     18.9535                 5.5938                 5.6321
 IR Inten    --    147.4859                31.6701                49.2349

                     70                     71                     72
                      A                      A                      A
 Frequencies --   3029.4937              3042.5614              3052.2193
 Red. masses --      1.0607                 1.0633                 1.0713
 Frc consts  --      5.7359                 5.7995                 5.8802
 IR Inten    --     43.1060                21.7550                38.7788

                     73                     74                     75
                      A                      A                      A
 Frequencies --   3053.4995              3059.6694              3078.5655
 Red. masses --      1.0659                 1.0519                 1.1041
 Frc consts  --      5.8555                 5.8020                 6.1651
 IR Inten    --     14.6219                18.3502                15.5457

                     76                     77                     78
                      A                      A                      A
 Frequencies --   3100.4141              3103.1295              3108.1522
 Red. masses --      1.1001                 1.0944                 1.0936
 Frc consts  --      6.2307                 6.2090                 6.2246
 IR Inten    --     48.0643                51.3448                43.3444

                     79                     80                     81
                      A                      A                      A
 Frequencies --   3119.6820              3121.1418              3150.0739
 Red. masses --      1.0996                 1.0995                 1.0984
 Frc consts  --      6.3052                 6.3109                 6.4218
 IR Inten    --     26.8033                20.4868                16.6088

                     82                     83                     84
                      A                      A                      A
 Frequencies --   3167.3378              3182.9484              3263.1664
 Red. masses --      1.0626                 1.0905                 1.1152
 Frc consts  --      6.2806                 6.5095                 6.9964
 IR Inten    --     12.0873                17.2744                 1.6998

 - Thermochemistry -
 -------------------
 Temperature   298.150 Kelvin.  Pressure   1.00000 Atm.
 Atom     1 has atomic number  6 and mass  12.00000

 Molecular mass:   183.12593 amu.
 Principal axes and moments of inertia in atomic units:
                           1         2         3
     Eigenvalues --  1337.047283597.074033828.66315
           X            0.99984  -0.00770  -0.01588
           Y            0.00687   0.99864  -0.05166
           Z            0.01626   0.05154   0.99854
 This molecule is an asymmetric top.
 Rotational symmetry number  1.
 Warning -- assumption of classical behavior for rotation
           may cause significant error
 Rotational temperatures (Kelvin)      0.06478     0.02408     0.02262
 Rotational constants (GHZ):           1.34980     0.50172     0.47138
 Zero-point vibrational energy     694828.4 (Joules/Mol)
                                  166.06798 (Kcal/Mol)
 Warning -- explicit consideration of  19 degrees of freedom as
           vibrations may cause significant error
 Vibrational temperatures:     56.82    83.45   110.46   153.48   207.63
          (Kelvin)            211.23   291.09   291.22   358.69   381.16
                              441.97   459.98   588.59   635.22   655.27
                              668.87   712.42   744.97   782.20   902.77
                              948.16   970.34  1130.70  1208.29  1231.82
                             1241.20  1284.96  1302.97  1374.31  1419.76
                             1429.06  1435.67  1499.18  1503.48  1532.31
                             1575.44  1582.16  1600.55  1634.90  1651.59
                             1698.81  1715.43  1796.97  1840.05  1868.41
                             1887.98  1913.99  1917.73  1936.98  1979.01
                             1987.66  1997.61  2024.68  2028.95  2048.66
                             2071.24  2078.13  2106.15  2157.50  2159.56
                             2180.66  2188.31  2196.73  2205.72  2216.15
                             2442.89  2521.64  4283.83  4298.43  4358.77
                             4377.57  4391.46  4393.30  4402.18  4429.37
                             4460.80  4464.71  4471.94  4488.53  4490.63
                             4532.25  4557.09  4579.55  4694.97

 Zero-point correction=                           0.264646 (Hartree/Particle)
 Thermal correction to Energy=                    0.277907
 Thermal correction to Enthalpy=                  0.278852
 Thermal correction to Gibbs Free Energy=         0.224535
 Sum of electronic and zero-point Energies=           -596.230425
 Sum of electronic and thermal Energies=              -596.217163
 Sum of electronic and thermal Enthalpies=            -596.216219
 Sum of electronic and thermal Free Energies=         -596.270536

                     E (Thermal)             CV                S
                      KCal/Mol        Cal/Mol-Kelvin    Cal/Mol-Kelvin
 Total                  174.390             50.186            114.319
 Electronic               0.000              0.000              0.000
 Translational            0.889              2.981             41.521
 Rotational               0.889              2.981             31.288
 Vibrational            172.612             44.224             41.510
 Vibration     1          0.594              1.981              5.284
 Vibration     2          0.596              1.974              4.524
 Vibration     3          0.599              1.965              3.972
 Vibration     4          0.606              1.944              3.329
 Vibration     5          0.616              1.909              2.746
 Vibration     6          0.617              1.906              2.713
 Vibration     7          0.639              1.837              2.112
 Vibration     8          0.639              1.836              2.111
 Vibration     9          0.662              1.764              1.736
 Vibration    10          0.671              1.737              1.629
 Vibration    11          0.697              1.660              1.377
 Vibration    12          0.706              1.636              1.312
 Vibration    13          0.773              1.450              0.930
 Vibration    14          0.801              1.380              0.822
 Vibration    15          0.814              1.349              0.779
 Vibration    16          0.822              1.328              0.752
 Vibration    17          0.851              1.261              0.670
 Vibration    18          0.873              1.211              0.615
 Vibration    19          0.899              1.154              0.557

 Optimization completed.
    -- Stationary point found.
 Normal termination of Gaussian 16 at Wed Dec  9 22:37:05 2020.

 ----------------------------------------------------------------------
 # B3LYP/6-311++G(d,p) empiricaldispersion=gd3bj scf=xqc pop=npa geom=c
 heck
 ----------------------------------------------------------------------

 --------------------------------------
 CID_91124309_JID_3134_Energie_neutraal
 --------------------------------------
 Structure from the checkpoint file:  "JID_3134.chk"
 Charge =  0 Multiplicity = 1

 SCF Done:  E(RB3LYP) =  -596.666601513     A.U. after   14 cycles
 Normal termination of Gaussian 16 at Wed Dec  9 22:41:10 2020.

 ----------------------------------------------------------------------
 # B3LYP/6-311++G(d,p) empiricaldispersion=gd3bj scf=xqc pop=npa geom=c
 heck
 ----------------------------------------------------------------------

 ------------------------------------
 CID_91124309_JID_3134_Energie_kation
 ------------------------------------
 Structure from the checkpoint file:  "JID_3134.chk"
 Charge =  1 Multiplicity = 2

 SCF Done:  E(UB3LYP) =  -596.379250401     A.U. after   22 cycles
 Normal termination of Gaussian 16 at Wed Dec  9 22:50:38 2020.
 Gaussian 16:  ES64L-G16RevA.03 25-Dec-2016

 ----------------------------------------------------------------------
 # B3LYP/6-311++G(d,p) empiricaldispersion=gd3bj scf=xqc pop=npa geom=c
 heck
 ----------------------------------------------------------------------

 -----------------------------------
 CID_91124309_JID_3134_Energie_anion
 -----------------------------------
 Structure from the checkpoint file:  "JID_3134.chk"
 Charge = -1 Multiplicity = 2

                         Standard orientation:
 ---------------------------------------------------------------------
 Center     Atomic      Atomic             Coordinates (Angstroms)
 Number     Number       Type             X           Y           Z
 ---------------------------------------------------------------------
      1          6           0       -1.890238    2.041749    0.186161
      2          6           0       -1.549305    0.912468   -0.792249
      3          6           0       -0.019606    0.720685   -0.943402
      4          7           0        0.634375    0.303137    0.300796
      5          6           0        1.787689    1.114707    0.704421
      6          6           0        3.050979    0.773361   -0.087967
      7          8           0        3.352791   -0.611935    0.027367
      8          6           0        2.275813   -1.414339   -0.447019
      9          6           0        0.992679   -1.123185    0.333088
     10          6           0       -2.248068   -0.433098   -0.556084
     11          8           0       -2.508772   -1.134904   -1.525897
     12          6           0       -2.627931   -0.931073    0.794343
     13          6           0       -2.006220   -0.646074    1.943713
     14          1           0       -1.342366    1.943409    1.125746
     15          1           0       -2.959460    2.068448    0.418581
     16          1           0       -1.618914    3.005969   -0.259358
     17          1           0       -1.905198    1.194215   -1.791219
     18          1           0        0.157015    0.007022   -1.759187
     19          1           0        0.399359    1.679190   -1.271639
     20          1           0        1.981529    0.919926    1.767499
     21          1           0        1.534642    2.175495    0.601616
     22          1           0        2.920233    1.044122   -1.150424
     23          1           0        3.921278    1.313098    0.298822
     24          1           0        2.586922   -2.455677   -0.319410
     25          1           0        2.120572   -1.232037   -1.524098
     26          1           0        1.141365   -1.413280    1.380959
     27          1           0        0.158816   -1.714266   -0.056542
     28          1           0       -3.425693   -1.670713    0.763462
     29          1           0       -2.301469   -1.130166    2.870967
     30          1           0       -1.156162    0.026784    1.976863
 ---------------------------------------------------------------------

 SCF Done:  E(UB3LYP) =  -596.667831586     A.U. after   33 cycles
 SCF Done:  E(UB3LYP) =  -596.667831586     a.u. after    1 cycles

 The electronic state is 2-A.
 Alpha  occ. eigenvalues --  -19.02367 -18.92647 -14.19091 -10.11188 -10.11119
 Alpha  occ. eigenvalues --  -10.08822 -10.08083 -10.07391 -10.07036 -10.04023
 Alpha  occ. eigenvalues --  -10.03334 -10.01414 -10.00775  -0.93899  -0.86655
 Alpha  occ. eigenvalues --   -0.80961  -0.66764  -0.66483  -0.62007  -0.58988
 Alpha  occ. eigenvalues --   -0.54874  -0.54431  -0.49992  -0.46631  -0.43962
 Alpha  occ. eigenvalues --   -0.40109  -0.37767  -0.37413  -0.36104  -0.35675
 Alpha  occ. eigenvalues --   -0.33920  -0.33381  -0.30493  -0.30060  -0.29282
 Alpha  occ. eigenvalues --   -0.28447  -0.27112  -0.26627  -0.25482  -0.24663
 Alpha  occ. eigenvalues --   -0.24458  -0.23679  -0.22306  -0.21300  -0.19972
 Alpha  occ. eigenvalues --   -0.19376  -0.17499  -0.12891  -0.09543  -0.08477
 Alpha  occ. eigenvalues --    0.04962
 Alpha virt. eigenvalues --    0.06844   0.08723   0.08906   0.09028   0.10326
 Alpha virt. eigenvalues --    0.11036   0.11305   0.11609   0.12049   0.13161
 Alpha virt. eigenvalues --    0.13597   0.14057   0.14735   0.14843   0.15341

  Beta  occ. eigenvalues --  -19.02363 -18.92169 -14.19092 -10.11186 -10.11097
  Beta  occ. eigenvalues --  -10.08812 -10.08079 -10.07355 -10.06738 -10.04047
  Beta  occ. eigenvalues --  -10.03316 -10.01382 -10.00437  -0.93890  -0.85793
  Beta  occ. eigenvalues --   -0.80949  -0.66725  -0.66356  -0.61514  -0.58936
  Beta  occ. eigenvalues --   -0.54842  -0.54386  -0.49652  -0.46017  -0.43724
  Beta  occ. eigenvalues --   -0.40052  -0.37706  -0.37293  -0.36064  -0.35597
  Beta  occ. eigenvalues --   -0.33834  -0.33236  -0.30262  -0.29776  -0.29223
  Beta  occ. eigenvalues --   -0.28188  -0.27061  -0.26497  -0.25441  -0.24415
  Beta  occ. eigenvalues --   -0.24121  -0.23160  -0.22103  -0.21259  -0.19405
  Beta  occ. eigenvalues --   -0.18420  -0.17463  -0.11107  -0.09481  -0.08022
  Beta virt. eigenvalues --    0.07365   0.08898   0.08939   0.09126   0.10212
  Beta virt. eigenvalues --    0.11084   0.11328   0.11413   0.11712   0.11995
  Beta virt. eigenvalues --    0.13192   0.13536   0.14126   0.14781   0.15096

 Mulliken charges and spin densities:
               1          2
     1  C   -0.183775  -0.466633
     2  C    0.509124   0.082749
     3  C   -0.351629  -0.373623
     4  N    0.098636   0.051193
     5  C   -0.229599   0.219289
     6  C    0.348492  -0.810906
     7  O   -0.157618   0.026685
     8  C   -0.473550  -0.026375
     9  C   -0.026519  -0.023238
    10  C   -0.570283   0.167131
    11  O   -0.336806   0.163146
    12  C    0.006677   0.028340
    13  C   -0.439591   0.287010
    14  H    0.027163   0.095678
    15  H    0.142494   0.005975
    16  H    0.039949   0.072775
    17  H    0.035323   0.169261
    18  H    0.175586  -0.026764
    19  H   -0.169376   0.324410
    20  H    0.150767  -0.000871
    21  H   -0.103586   0.251368
    22  H   -0.094051   0.231787
    23  H   -0.301778   0.483998
    24  H    0.166683   0.002523
    25  H    0.088410   0.049456
    26  H    0.155239  -0.004201
    27  H    0.221177  -0.018471
    28  H    0.120918   0.015222
    29  H    0.075423   0.022042
    30  H    0.076098   0.001045
 Sum of Mulliken charges =  -1.00000   1.00000

 Dipole moment (field-independent basis, Debye):
    X=              3.3218    Y=             -0.1924    Z=              1.6042  Tot=              3.6939
 Quadrupole moment (field-independent basis, Debye-Ang):
   XX=           -134.6998   YY=           -103.4137   ZZ=           -105.9009
   XY=            -10.6530   XZ=             -2.6446   YZ=             -0.9876

 Summary of Natural Population Analysis:

                                       Natural Population
                Natural  -----------------------------------------------
    Atom  No    Charge         Core      Valence    Rydberg      Total
 -----------------------------------------------------------------------
      C    1   -0.28495      0.99965     2.27856    0.00674     3.28495
      C    2   -0.15203      0.99956     2.14037    0.01210     3.15203
      C    3   -0.07780      0.99958     2.06501    0.01321     3.07780
      N    4   -0.28975      0.99973     2.77608    0.01394     3.78975
      C    5   -0.09487      0.99961     2.08354    0.01172     3.09487
      C    6   -0.02210      0.99958     2.00885    0.01368     3.02210
      O    7   -0.30371      0.99989     3.29461    0.00921     4.30371
      C    8   -0.02123      0.99958     2.00935    0.01229     3.02123
      C    9   -0.09984      0.99961     2.08962    0.01060     3.09984
      C   10    0.29763      0.99960     1.68054    0.02222     2.70237
      O   11   -0.26328      0.99988     3.25664    0.00676     4.26328
      C   12   -0.14291      0.99954     2.13300    0.01037     3.14291
      C   13   -0.11543      0.99958     2.10828    0.00757     3.11543
      H   14    0.10099      0.00000     0.39785    0.00117     0.39901
      H   15    0.10055      0.00000     0.39865    0.00080     0.39945
      H   16    0.09015      0.00000     0.40900    0.00085     0.40985
      H   17    0.10321      0.00000     0.39489    0.00190     0.39679
      H   18    0.09305      0.00000     0.40550    0.00144     0.40695
      H   19    0.09142      0.00000     0.40676    0.00182     0.40858
      H   20    0.09172      0.00000     0.40714    0.00114     0.40828
      H   21    0.09890      0.00000     0.39999    0.00111     0.40110
      H   22    0.07871      0.00000     0.41978    0.00151     0.42129
      H   23    0.08881      0.00000     0.40963    0.00156     0.41119
      H   24    0.08786      0.00000     0.41117    0.00098     0.41214
      H   25    0.07812      0.00000     0.42069    0.00119     0.42188
      H   26    0.09443      0.00000     0.40468    0.00088     0.40557
      H   27    0.11155      0.00000     0.38750    0.00095     0.38845
      H   28    0.09051      0.00000     0.40740    0.00209     0.40949
      H   29    0.07913      0.00000     0.41940    0.00147     0.42087
      H   30    0.09117      0.00000     0.40724    0.00160     0.40883
 =======================================================================
   * Total *    0.00000     12.99541    36.83173    0.17286    50.00000

 Normal termination of Gaussian 16 at Wed Dec  9 23:03:34 2020.
