 Gaussian 16, Revision A.03,

 -----------------------------------------------------------
 # opt freq B3LYP/6-31G(d) empiricaldispersion=gd3bj scf=xqc
 -----------------------------------------------------------

 ------------------------------
 CID_66258164_JID_6342_neutraal
 ------------------------------
 Symbolic Z-matrix:
 Charge =  0 Multiplicity = 1

 SCF Done:  E(RB3LYP) =  -731.696484108     A.U. after   12 cycles
 SCF Done:  E(RB3LYP) =  -731.699383340     A.U. after   11 cycles
 SCF Done:  E(RB3LYP) =  -731.697333071     A.U. after   11 cycles
 SCF Done:  E(RB3LYP) =  -731.700605731     A.U. after   11 cycles
 SCF Done:  E(RB3LYP) =  -731.702707970     A.U. after   11 cycles
 SCF Done:  E(RB3LYP) =  -731.703328026     A.U. after   10 cycles
 SCF Done:  E(RB3LYP) =  -731.703619464     A.U. after   10 cycles
 SCF Done:  E(RB3LYP) =  -731.703776854     A.U. after   10 cycles
 SCF Done:  E(RB3LYP) =  -731.703873669     A.U. after    9 cycles
 SCF Done:  E(RB3LYP) =  -731.703943037     A.U. after   10 cycles
 SCF Done:  E(RB3LYP) =  -731.703962947     A.U. after    8 cycles
 SCF Done:  E(RB3LYP) =  -731.703965966     A.U. after    8 cycles
 SCF Done:  E(RB3LYP) =  -731.703968195     A.U. after    9 cycles
 SCF Done:  E(RB3LYP) =  -731.703969366     A.U. after    7 cycles
 SCF Done:  E(RB3LYP) =  -731.703969592     A.U. after    7 cycles
 SCF Done:  E(RB3LYP) =  -731.703969620     A.U. after    6 cycles
 Optimization completed.
    -- Stationary point found.
 Normal termination of Gaussian 16 at Thu Dec 10 22:31:24 2020.

 --------------------------------------------------------------------
 #N Geom=AllCheck Guess=TCheck SCRF=Check GenChk RB3LYP/6-31G(d) Freq
 --------------------------------------------------------------------

 Structure from the checkpoint file:  "JID_6342.chk"
 ------------------------------
 CID_66258164_JID_6342_neutraal
 ------------------------------
 Charge =  0 Multiplicity = 1

 SCF Done:  E(RB3LYP) =  -731.703969620     A.U. after    1 cycles

  Exact polarizability: 155.288   1.507 146.917   3.630   1.081 125.881
 Approx polarizability: 195.235   4.268 199.398   2.139   2.653 193.587

                      1                      2                      3
                      A                      A                      A
 Frequencies --     29.5339                39.9947                66.1312
 Red. masses --      3.5848                 3.9023                 3.4796
 Frc consts  --      0.0018                 0.0037                 0.0090
 IR Inten    --      0.5203                 1.1647                 3.1275

                      4                      5                      6
                      A                      A                      A
 Frequencies --     81.9920                88.5112               113.6036
 Red. masses --      3.1016                 3.6066                 1.7453
 Frc consts  --      0.0123                 0.0166                 0.0133
 IR Inten    --      1.3307                 0.6351                 2.0081

                      7                      8                      9
                      A                      A                      A
 Frequencies --    137.0620               169.2167               198.3463
 Red. masses --      2.6848                 2.5065                 1.9270
 Frc consts  --      0.0297                 0.0423                 0.0447
 IR Inten    --      0.0317                 0.3387                 2.4481

                     10                     11                     12
                      A                      A                      A
 Frequencies --    207.4134               212.3064               235.6398
 Red. masses --      1.9896                 2.2834                 2.0983
 Frc consts  --      0.0504                 0.0606                 0.0686
 IR Inten    --      0.9845                 0.9779                 1.5197

                     13                     14                     15
                      A                      A                      A
 Frequencies --    259.2718               276.1879               322.2890
 Red. masses --      1.9234                 1.7780                 2.2383
 Frc consts  --      0.0762                 0.0799                 0.1370
 IR Inten    --      0.0309                 1.8491                 2.1111

                     16                     17                     18
                      A                      A                      A
 Frequencies --    341.9694               357.5621               370.9361
 Red. masses --      2.7164                 2.8890                 2.2658
 Frc consts  --      0.1872                 0.2176                 0.1837
 IR Inten    --      0.6748                 5.5305                10.5809

                     19                     20                     21
                      A                      A                      A
 Frequencies --    374.9950               415.6337               458.6593
 Red. masses --      2.3075                 2.5868                 2.3640
 Frc consts  --      0.1912                 0.2633                 0.2930
 IR Inten    --      0.4118                13.6724                 3.2610

                     22                     23                     24
                      A                      A                      A
 Frequencies --    501.4419               560.2300               570.1209
 Red. masses --      4.6070                 2.5851                 2.5496
 Frc consts  --      0.6825                 0.4780                 0.4883
 IR Inten    --      4.0144                 2.8389                 0.9076

                     25                     26                     27
                      A                      A                      A
 Frequencies --    639.5231               677.5291               707.6774
 Red. masses --      3.9790                 4.3023                 2.2132
 Frc consts  --      0.9588                 1.1636                 0.6530
 IR Inten    --     10.4480                10.2775                 3.1982

                     28                     29                     30
                      A                      A                      A
 Frequencies --    757.2404               793.1751               804.3042
 Red. masses --      1.4813                 3.0136                 2.8628
 Frc consts  --      0.5004                 1.1170                 1.0911
 IR Inten    --     69.5282                 0.9167                 3.0555

                     31                     32                     33
                      A                      A                      A
 Frequencies --    839.3437               844.3361               898.8271
 Red. masses --      1.2096                 2.2003                 2.4720
 Frc consts  --      0.5021                 0.9242                 1.1767
 IR Inten    --      1.7687                13.0679                18.0812

                     34                     35                     36
                      A                      A                      A
 Frequencies --    924.6751               931.7029               939.7072
 Red. masses --      1.6604                 1.6791                 1.7075
 Frc consts  --      0.8365                 0.8588                 0.8884
 IR Inten    --      1.5661                 7.4432                 3.7349

                     37                     38                     39
                      A                      A                      A
 Frequencies --    954.1212               967.3471               981.5445
 Red. masses --      3.6758                 1.7984                 1.5531
 Frc consts  --      1.9715                 0.9915                 0.8816
 IR Inten    --     39.4052                 0.5351                 6.4456

                     40                     41                     42
                      A                      A                      A
 Frequencies --    996.8054              1054.8645              1057.6139
 Red. masses --      1.8018                 3.0362                 3.2412
 Frc consts  --      1.0548                 1.9905                 2.1361
 IR Inten    --      7.3074                 3.7554                 8.6661

                     43                     44                     45
                      A                      A                      A
 Frequencies --   1076.3490              1088.3363              1093.1350
 Red. masses --      2.6280                 1.9993                 2.8664
 Frc consts  --      1.7938                 1.3953                 2.0181
 IR Inten    --     26.6414                32.4802                50.2035

                     46                     47                     48
                      A                      A                      A
 Frequencies --   1108.0606              1117.5215              1126.8350
 Red. masses --      3.9837                 2.1271                 1.8281
 Frc consts  --      2.8818                 1.5651                 1.3677
 IR Inten    --     27.0670                20.8398                 7.8358

                     49                     50                     51
                      A                      A                      A
 Frequencies --   1140.2525              1155.0207              1162.1478
 Red. masses --      2.7159                 2.3832                 2.3508
 Frc consts  --      2.0805                 1.8733                 1.8706
 IR Inten    --     33.7815                42.9250                16.9027

                     52                     53                     54
                      A                      A                      A
 Frequencies --   1175.8393              1178.4183              1195.9014
 Red. masses --      2.5586                 1.6732                 2.4489
 Frc consts  --      2.0842                 1.3690                 2.0635
 IR Inten    --     35.4504                 7.8396                44.8191

                     55                     56                     57
                      A                      A                      A
 Frequencies --   1201.8056              1214.0695              1221.2729
 Red. masses --      2.0402                 1.8560                 1.9978
 Frc consts  --      1.7362                 1.6118                 1.7556
 IR Inten    --     31.0232                 4.0738                18.0942

                     58                     59                     60
                      A                      A                      A
 Frequencies --   1258.9205              1276.6169              1291.4460
 Red. masses --      1.3077                 1.1591                 1.2920
 Frc consts  --      1.2211                 1.1130                 1.2696
 IR Inten    --      0.3504                17.7546                 0.8354

                     61                     62                     63
                      A                      A                      A
 Frequencies --   1309.7014              1323.9838              1327.5186
 Red. masses --      1.2028                 1.3305                 1.2056
 Frc consts  --      1.2156                 1.3741                 1.2518
 IR Inten    --      9.9759                13.7430                13.7900

                     64                     65                     66
                      A                      A                      A
 Frequencies --   1347.6753              1354.6611              1367.5941
 Red. masses --      1.2293                 1.2460                 1.2597
 Frc consts  --      1.3155                 1.3471                 1.3882
 IR Inten    --      3.4364                 6.0969                 6.7659

                     67                     68                     69
                      A                      A                      A
 Frequencies --   1379.4381              1389.1371              1394.7582
 Red. masses --      1.4899                 1.2525                 1.2185
 Frc consts  --      1.6704                 1.4240                 1.3966
 IR Inten    --      1.0687                 9.1202                10.7907

                     70                     71                     72
                      A                      A                      A
 Frequencies --   1398.5487              1400.9771              1409.1872
 Red. masses --      1.3237                 1.3520                 1.2894
 Frc consts  --      1.5255                 1.5635                 1.5086
 IR Inten    --      2.6106                 2.7330                 9.2826

                     73                     74                     75
                      A                      A                      A
 Frequencies --   1428.1228              1434.4117              1437.2757
 Red. masses --      1.3181                 1.3695                 1.3935
 Frc consts  --      1.5840                 1.6602                 1.6960
 IR Inten    --     32.7897                21.5291                 1.7333

                     76                     77                     78
                      A                      A                      A
 Frequencies --   1440.5382              1450.5957              1456.8186
 Red. masses --      1.3309                 1.4381                 1.4099
 Frc consts  --      1.6273                 1.7829                 1.7630
 IR Inten    --      3.3664                12.4419                 2.9711

                     79                     80                     81
                      A                      A                      A
 Frequencies --   1508.3610              1513.3504              1515.2162
 Red. masses --      1.0822                 1.1314                 1.0684
 Frc consts  --      1.4507                 1.5266                 1.4452
 IR Inten    --      7.8486                 4.9011                 1.3057

                     82                     83                     84
                      A                      A                      A
 Frequencies --   1517.8683              1523.5110              1527.5603
 Red. masses --      1.0841                 1.0750                 1.0801
 Frc consts  --      1.4717                 1.4701                 1.4850
 IR Inten    --      2.5193                 0.6198                12.5952

                     85                     86                     87
                      A                      A                      A
 Frequencies --   1531.7944              1533.9959              1543.4993
 Red. masses --      1.0897                 1.1276                 1.0721
 Frc consts  --      1.5065                 1.5633                 1.5048
 IR Inten    --      6.2058                 2.9352                 0.3729

                     88                     89                     90
                      A                      A                      A
 Frequencies --   1549.4038              1559.6024              1562.1714
 Red. masses --      1.0845                 1.0872                 1.0939
 Frc consts  --      1.5339                 1.5581                 1.5728
 IR Inten    --      4.3633                 1.3876                 1.4460

                     91                     92                     93
                      A                      A                      A
 Frequencies --   2924.9136              2935.6553              2956.0028
 Red. masses --      1.0720                 1.0714                 1.0713
 Frc consts  --      5.4032                 5.4402                 5.5151
 IR Inten    --     40.8027                84.4870                91.8349

                     94                     95                     96
                      A                      A                      A
 Frequencies --   2956.7330              2998.2538              3005.9078
 Red. masses --      1.0729                 1.0693                 1.0730
 Frc consts  --      5.5263                 5.6633                 5.7123
 IR Inten    --     36.1122                99.7022                 6.5715

                     97                     98                     99
                      A                      A                      A
 Frequencies --   3017.6457              3021.3836              3044.4029
 Red. masses --      1.0788                 1.0684                 1.0395
 Frc consts  --      5.7881                 5.7464                 5.6764
 IR Inten    --     45.9781                81.3238                27.3480

                    100                    101                    102
                      A                      A                      A
 Frequencies --   3054.0010              3058.5017              3063.5380
 Red. masses --      1.0887                 1.0409                 1.0899
 Frc consts  --      5.9828                 5.7368                 6.0268
 IR Inten    --     23.7705                18.7090                25.7629

                    103                    104                    105
                      A                      A                      A
 Frequencies --   3069.9485              3073.4650              3079.2108
 Red. masses --      1.0855                 1.0964                 1.0877
 Frc consts  --      6.0275                 6.1021                 6.0760
 IR Inten    --     37.0596                40.5842                13.2454

                    106                    107                    108
                      A                      A                      A
 Frequencies --   3081.5599              3090.7738              3107.5392
 Red. masses --      1.0912                 1.0872                 1.0960
 Frc consts  --      6.1049                 6.1194                 6.2361
 IR Inten    --     89.6537                14.5075                44.1719

                    109                    110                    111
                      A                      A                      A
 Frequencies --   3113.2280              3115.5077              3124.9619
 Red. masses --      1.0968                 1.0916                 1.1002
 Frc consts  --      6.2633                 6.2427                 6.3300
 IR Inten    --     35.1629                22.3344                25.8744

                    112                    113                    114
                      A                      A                      A
 Frequencies --   3130.8689              3147.9914              3480.0938
 Red. masses --      1.1030                 1.1020                 1.0738
 Frc consts  --      6.3701                 6.4343                 7.6623
 IR Inten    --     28.1937                30.1828                 0.8501

 - Thermochemistry -
 -------------------
 Temperature   298.150 Kelvin.  Pressure   1.00000 Atm.
 Atom     1 has atomic number  6 and mass  12.00000

 Molecular mass:   228.18378 amu.
 Principal axes and moments of inertia in atomic units:
                           1         2         3
     Eigenvalues --  2244.555775426.715816608.12017
           X            0.99992   0.00892   0.00944
           Y           -0.00884   0.99992  -0.00941
           Z           -0.00952   0.00932   0.99991
 This molecule is an asymmetric top.
 Rotational symmetry number  1.
 Warning -- assumption of classical behavior for rotation
           may cause significant error
 Rotational temperatures (Kelvin)      0.03859     0.01596     0.01311
 Rotational constants (GHZ):           0.80405     0.33257     0.27311
 Zero-point vibrational energy     958990.6 (Joules/Mol)
                                  229.20424 (Kcal/Mol)
 Warning -- explicit consideration of  24 degrees of freedom as
           vibrations may cause significant error
 Vibrational temperatures:     42.49    57.54    95.15   117.97   127.35
          (Kelvin)            163.45   197.20   243.47   285.38   298.42
                              305.46   339.03   373.03   397.37   463.70
                              492.02   514.45   533.69   539.53   598.00
                              659.91   721.46   806.05   820.28   920.13
                              974.81  1018.19  1089.50  1141.20  1157.21
                             1207.63  1214.81  1293.21  1330.40  1340.51
                             1352.03  1372.77  1391.80  1412.22  1434.18
                             1517.71  1521.67  1548.63  1565.87  1572.78
                             1594.25  1607.86  1621.26  1640.57  1661.82
                             1672.07  1691.77  1695.48  1720.64  1729.13
                             1746.78  1757.14  1811.31  1836.77  1858.10
                             1884.37  1904.92  1910.00  1939.00  1949.06
                             1967.66  1984.70  1998.66  2006.75  2012.20
                             2015.69  2027.51  2054.75  2063.80  2067.92
                             2072.61  2087.08  2096.04  2170.20  2177.37
                             2180.06  2183.87  2191.99  2197.82  2203.91
                             2207.08  2220.75  2229.25  2243.92  2247.62
                             4208.30  4223.75  4253.03  4254.08  4313.82
                             4324.83  4341.72  4347.10  4380.22  4394.03
                             4400.50  4407.75  4416.97  4422.03  4430.30
                             4433.68  4446.93  4471.06  4479.24  4482.52
                             4496.12  4504.62  4529.26  5007.08

 Zero-point correction=                           0.365260 (Hartree/Particle)
 Thermal correction to Energy=                    0.381866
 Thermal correction to Enthalpy=                  0.382810
 Thermal correction to Gibbs Free Energy=         0.320470
 Sum of electronic and zero-point Energies=           -731.338709
 Sum of electronic and thermal Energies=              -731.322104
 Sum of electronic and thermal Enthalpies=            -731.321160
 Sum of electronic and thermal Free Energies=         -731.383500

                     E (Thermal)             CV                S
                      KCal/Mol        Cal/Mol-Kelvin    Cal/Mol-Kelvin
 Total                  239.624             63.239            131.205
 Electronic               0.000              0.000              0.000
 Translational            0.889              2.981             42.177
 Rotational               0.889              2.981             32.754
 Vibrational            237.847             57.277             56.275
 Vibration     1          0.593              1.984              5.860
 Vibration     2          0.594              1.981              5.259
 Vibration     3          0.598              1.970              4.265
 Vibration     4          0.600              1.961              3.843
 Vibration     5          0.601              1.957              3.693
 Vibration     6          0.607              1.938              3.206
 Vibration     7          0.614              1.916              2.844
 Vibration     8          0.625              1.880              2.444
 Vibration     9          0.637              1.842              2.148
 Vibration    10          0.641              1.829              2.066
 Vibration    11          0.643              1.822              2.024
 Vibration    12          0.655              1.786              1.836
 Vibration    13          0.668              1.747              1.667
 Vibration    14          0.678              1.717              1.557
 Vibration    15          0.707              1.631              1.298
 Vibration    16          0.721              1.592              1.203
 Vibration    17          0.733              1.560              1.133
 Vibration    18          0.743              1.532              1.076
 Vibration    19          0.746              1.523              1.059
 Vibration    20          0.779              1.436              0.907
 Vibration    21          0.817              1.342              0.770
 Vibration    22          0.857              1.247              0.655
 Vibration    23          0.916              1.117              0.523
 Vibration    24          0.926              1.096              0.504

 Optimization completed.
    -- Stationary point found.
 Normal termination of Gaussian 16 at Thu Dec 10 22:48:54 2020.

 ----------------------------------------------------------------------
 # B3LYP/6-311++G(d,p) empiricaldispersion=gd3bj scf=xqc pop=npa geom=c
 heck
 ----------------------------------------------------------------------

 --------------------------------------
 CID_66258164_JID_6342_Energie_neutraal
 --------------------------------------
 Structure from the checkpoint file:  "JID_6342.chk"
 Charge =  0 Multiplicity = 1

 SCF Done:  E(RB3LYP) =  -731.913209770     A.U. after   13 cycles
 Normal termination of Gaussian 16 at Thu Dec 10 22:57:19 2020.

 ----------------------------------------------------------------------
 # B3LYP/6-311++G(d,p) empiricaldispersion=gd3bj scf=xqc pop=npa geom=c
 heck
 ----------------------------------------------------------------------

 ------------------------------------
 CID_66258164_JID_6342_Energie_kation
 ------------------------------------
 Structure from the checkpoint file:  "JID_6342.chk"
 Charge =  1 Multiplicity = 2

 SCF Done:  E(UB3LYP) =  -731.627426151     A.U. after   25 cycles
 Normal termination of Gaussian 16 at Thu Dec 10 23:18:58 2020.
 Gaussian 16:  ES64L-G16RevA.03 25-Dec-2016

 ----------------------------------------------------------------------
 # B3LYP/6-311++G(d,p) empiricaldispersion=gd3bj scf=xqc pop=npa geom=c
 heck
 ----------------------------------------------------------------------

 -----------------------------------
 CID_66258164_JID_6342_Energie_anion
 -----------------------------------
 Structure from the checkpoint file:  "JID_6342.chk"
 Charge = -1 Multiplicity = 2

                         Standard orientation:
 ---------------------------------------------------------------------
 Center     Atomic      Atomic             Coordinates (Angstroms)
 Number     Number       Type             X           Y           Z
 ---------------------------------------------------------------------
      1          6           0        0.381655    3.399215   -0.451350
      2          6           0        0.961745    2.004309   -0.661922
      3          7           0        1.452366    1.471767    0.610451
      4          6           0        2.172981    0.201839    0.578899
      5          6           0        3.594669    0.233307   -0.014283
      6          8           0        3.924112   -1.114356   -0.339164
      7          6           0        2.727262   -1.897644   -0.362144
      8          6           0        1.539469   -0.930642   -0.248916
      9          6           0        0.288739   -1.627982    0.295261
     10          7           0       -0.941208   -0.847395    0.166273
     11          6           0       -1.250452   -0.060975    1.363532
     12          6           0       -2.462680    0.819353    1.093086
     13          8           0       -3.590288    0.060893    0.671029
     14          6           0       -3.316020   -0.765568   -0.463975
     15          6           0       -2.103342   -1.662626   -0.184333
     16          6           0       -3.166028    0.048399   -1.751672
     17          1           0        1.150540    4.103192   -0.107544
     18          1           0       -0.414111    3.374060    0.300580
     19          1           0       -0.034128    3.791672   -1.385103
     20          1           0        0.173921    1.331834   -1.016111
     21          1           0        1.734665    2.043097   -1.450652
     22          1           0        2.034027    2.170142    1.070969
     23          1           0        2.247955   -0.148438    1.618954
     24          1           0        3.623650    0.863288   -0.917195
     25          1           0        4.338704    0.617965    0.693618
     26          1           0        2.739061   -2.603377    0.483707
     27          1           0        2.698447   -2.484105   -1.288281
     28          1           0        1.302097   -0.550128   -1.248724
     29          1           0        0.157287   -2.553520   -0.279649
     30          1           0        0.462040   -1.939940    1.341861
     31          1           0       -1.466231   -0.725757    2.223724
     32          1           0       -0.391373    0.571342    1.602542
     33          1           0       -2.202269    1.581789    0.343995
     34          1           0       -2.773756    1.333109    2.007644
     35          1           0       -4.202106   -1.404497   -0.550225
     36          1           0       -1.872080   -2.250093   -1.080336
     37          1           0       -2.364740   -2.369750    0.626844
     38          1           0       -3.175943   -0.617904   -2.621954
     39          1           0       -3.997670    0.753474   -1.846307
     40          1           0       -2.224674    0.603749   -1.767446
 ---------------------------------------------------------------------

 SCF Done:  E(UB3LYP) =  -731.899157478     A.U. after   30 cycles

 The electronic state is 2-A.
 Alpha  occ. eigenvalues --  -19.02923 -19.02738 -14.21376 -14.20518 -10.12714
 Alpha  occ. eigenvalues --  -10.12495 -10.11839 -10.11730 -10.10989 -10.10641
 Alpha  occ. eigenvalues --  -10.09881 -10.09471 -10.09002 -10.08567 -10.06444
 Alpha  occ. eigenvalues --  -10.06281  -0.94658  -0.94345  -0.83392  -0.81462
 Alpha  occ. eigenvalues --   -0.70564  -0.69131  -0.66308  -0.63062  -0.62128
 Alpha  occ. eigenvalues --   -0.59862  -0.55742  -0.53469  -0.52472  -0.50596
 Alpha  occ. eigenvalues --   -0.47394  -0.45049  -0.42601  -0.41140  -0.39805
 Alpha  occ. eigenvalues --   -0.38867  -0.38299  -0.37148  -0.36780  -0.35501
 Alpha  occ. eigenvalues --   -0.35190  -0.33808  -0.33487  -0.33060  -0.32557
 Alpha  occ. eigenvalues --   -0.31315  -0.29408  -0.29353  -0.28599  -0.27530
 Alpha  occ. eigenvalues --   -0.27477  -0.26986  -0.26132  -0.25899  -0.25728
 Alpha  occ. eigenvalues --   -0.24524  -0.23420  -0.22464  -0.20650  -0.16812
 Alpha  occ. eigenvalues --   -0.16430  -0.13258  -0.12787   0.04251
 Alpha virt. eigenvalues --    0.05782   0.06698   0.07168   0.07888   0.08395
 Alpha virt. eigenvalues --    0.08877   0.09051   0.09449   0.10319   0.10503
 Alpha virt. eigenvalues --    0.10960   0.11333   0.11901   0.12144   0.12441

  Beta  occ. eigenvalues --  -19.02920 -19.02737 -14.21367 -14.20495 -10.12705
  Beta  occ. eigenvalues --  -10.12482 -10.11829 -10.11708 -10.10981 -10.10629
  Beta  occ. eigenvalues --  -10.09864 -10.09459 -10.08996 -10.08564 -10.06409
  Beta  occ. eigenvalues --  -10.06258  -0.94644  -0.94338  -0.83372  -0.81428
  Beta  occ. eigenvalues --   -0.70548  -0.69109  -0.66277  -0.63040  -0.62081
  Beta  occ. eigenvalues --   -0.59827  -0.55710  -0.53432  -0.52416  -0.50553
  Beta  occ. eigenvalues --   -0.47353  -0.45013  -0.42571  -0.41108  -0.39773
  Beta  occ. eigenvalues --   -0.38850  -0.38266  -0.37121  -0.36752  -0.35480
  Beta  occ. eigenvalues --   -0.35160  -0.33777  -0.33465  -0.33027  -0.32534
  Beta  occ. eigenvalues --   -0.31291  -0.29383  -0.29326  -0.28571  -0.27505
  Beta  occ. eigenvalues --   -0.27437  -0.26956  -0.26098  -0.25867  -0.25698
  Beta  occ. eigenvalues --   -0.24500  -0.23400  -0.22440  -0.20633  -0.16800
  Beta  occ. eigenvalues --   -0.16418  -0.13224  -0.12747
  Beta virt. eigenvalues --    0.06388   0.07023   0.07130   0.07459   0.08411
  Beta virt. eigenvalues --    0.08847   0.09126   0.09367   0.09635   0.10720
  Beta virt. eigenvalues --    0.10950   0.11318   0.11511   0.12070   0.12359

 Mulliken charges and spin densities:
               1          2
     1  C    1.206287  -1.848461
     2  C   -0.481038   0.464954
     3  N   -0.194750   0.116224
     4  C   -0.545053   0.102252
     5  C    0.450983  -0.828618
     6  O   -0.173985   0.039282
     7  C   -0.435799  -0.270600
     8  C    0.592161   0.220385
     9  C   -0.627622  -0.467410
    10  N    0.310706   0.076848
    11  C   -0.349206  -0.005879
    12  C   -0.087088  -0.309646
    13  O   -0.082978  -0.008784
    14  C   -1.117107   0.938168
    15  C    0.878977  -1.040343
    16  C    0.745492  -1.241471
    17  H   -0.480042   0.627715
    18  H   -0.133431   0.272883
    19  H   -0.074734   0.218210
    20  H    0.309600  -0.141793
    21  H   -0.171817   0.296005
    22  H    0.037934   0.214790
    23  H   -0.081384   0.294918
    24  H    0.097519   0.070944
    25  H   -0.334232   0.512242
    26  H    0.064292   0.088139
    27  H   -0.061519   0.231918
    28  H    0.137623   0.087882
    29  H   -0.123376   0.305781
    30  H    0.136824  -0.008138
    31  H    0.034056   0.102880
    32  H    0.175179   0.019481
    33  H    0.170736  -0.020625
    34  H    0.040033   0.128792
    35  H   -0.310013   0.530837
    36  H   -0.347115   0.488649
    37  H    0.025539   0.094203
    38  H   -0.142777   0.274882
    39  H   -0.052513   0.206419
    40  H   -0.006360   0.166088
 Sum of Mulliken charges =  -1.00000   1.00000

 Dipole moment (field-independent basis, Debye):
    X=             -0.8199    Y=             -2.0244    Z=              1.7158  Tot=              2.7775
 Quadrupole moment (field-independent basis, Debye-Ang):
   XX=           -181.1076   YY=           -160.9550   ZZ=           -138.1114
   XY=            -11.5563   XZ=             -6.8034   YZ=             -6.1489

 Summary of Natural Population Analysis:

                                       Natural Population
                Natural  -----------------------------------------------
    Atom  No    Charge         Core      Valence    Rydberg      Total
 -----------------------------------------------------------------------
      C    1   -0.28619      0.99966     2.28074    0.00579     3.28619
      C    2   -0.09361      0.99962     2.08339    0.01059     3.09361
      N    3   -0.34485      0.99973     2.83047    0.01465     3.84485
      C    4   -0.01640      0.99956     2.00321    0.01362     3.01640
      C    5   -0.01187      0.99956     1.99907    0.01323     3.01187
      O    6   -0.30361      0.99990     3.29550    0.00822     4.30361
      C    7   -0.00036      0.99957     1.99011    0.01068     3.00036
      C    8   -0.13096      0.99956     2.12080    0.01059     3.13096
      C    9   -0.07737      0.99958     2.06529    0.01251     3.07737
      N   10   -0.28976      0.99970     2.77770    0.01236     3.78976
      C   11   -0.10504      0.99960     2.09683    0.00860     3.10504
      C   12   -0.01396      0.99956     2.00274    0.01167     3.01396
      O   13   -0.30385      0.99989     3.29512    0.00884     4.30385
      C   14    0.06026      0.99955     1.92383    0.01635     2.93974
      C   15   -0.09315      0.99959     2.08173    0.01183     3.09315
      C   16   -0.30105      0.99964     2.29542    0.00599     3.30105
      H   17    0.09780      0.00000     0.40047    0.00172     0.40220
      H   18    0.09815      0.00000     0.40061    0.00125     0.40185
      H   19    0.10041      0.00000     0.39870    0.00089     0.39959
      H   20    0.09560      0.00000     0.40097    0.00343     0.40440
      H   21    0.07858      0.00000     0.41972    0.00170     0.42142
      H   22    0.17661      0.00000     0.31967    0.00373     0.32339
      H   23    0.09276      0.00000     0.40552    0.00172     0.40724
      H   24    0.08010      0.00000     0.41818    0.00173     0.41990
      H   25    0.08815      0.00000     0.41019    0.00166     0.41185
      H   26    0.07882      0.00000     0.41970    0.00148     0.42118
      H   27    0.08735      0.00000     0.41124    0.00141     0.41265
      H   28    0.10364      0.00000     0.39357    0.00279     0.39636
      H   29    0.09795      0.00000     0.40081    0.00124     0.40205
      H   30    0.08509      0.00000     0.41351    0.00139     0.41491
      H   31    0.07763      0.00000     0.42095    0.00142     0.42237
      H   32    0.11861      0.00000     0.37947    0.00192     0.38139
      H   33    0.08227      0.00000     0.41605    0.00168     0.41773
      H   34    0.08975      0.00000     0.40914    0.00111     0.41025
      H   35    0.09092      0.00000     0.40773    0.00135     0.40908
      H   36    0.10126      0.00000     0.39703    0.00171     0.39874
      H   37    0.08383      0.00000     0.41474    0.00144     0.41617
      H   38    0.10264      0.00000     0.39620    0.00116     0.39736
      H   39    0.10145      0.00000     0.39763    0.00092     0.39855
      H   40    0.10240      0.00000     0.39570    0.00190     0.39760
 =======================================================================
   * Total *    0.00000     15.99428    46.78944    0.21628    63.00000

 Normal termination of Gaussian 16 at Thu Dec 10 23:44:50 2020.
