 Gaussian 16, Revision A.03,

 -----------------------------------------------------------
 # opt freq B3LYP/6-31G(d) empiricaldispersion=gd3bj scf=xqc
 -----------------------------------------------------------

 -------------------------------
 CID_116136375_JID_7078_neutraal
 -------------------------------
 Symbolic Z-matrix:
 Charge =  0 Multiplicity = 1

 SCF Done:  E(RB3LYP) =  -679.555534722     A.U. after   13 cycles
 SCF Done:  E(RB3LYP) =  -679.561732478     A.U. after   11 cycles
 SCF Done:  E(RB3LYP) =  -679.562381262     A.U. after   11 cycles
 SCF Done:  E(RB3LYP) =  -679.562982279     A.U. after   12 cycles
 SCF Done:  E(RB3LYP) =  -679.563101228     A.U. after   10 cycles
 SCF Done:  E(RB3LYP) =  -679.563140576     A.U. after   11 cycles
 SCF Done:  E(RB3LYP) =  -679.563224615     A.U. after   10 cycles
 SCF Done:  E(RB3LYP) =  -679.563277551     A.U. after   11 cycles
 SCF Done:  E(RB3LYP) =  -679.563302743     A.U. after   11 cycles
 SCF Done:  E(RB3LYP) =  -679.563305239     A.U. after    8 cycles
 SCF Done:  E(RB3LYP) =  -679.563305928     A.U. after    7 cycles
 SCF Done:  E(RB3LYP) =  -679.563306142     A.U. after    7 cycles
 SCF Done:  E(RB3LYP) =  -679.563306179     A.U. after    6 cycles
 SCF Done:  E(RB3LYP) =  -679.563306192     A.U. after    6 cycles
 Optimization completed.
    -- Stationary point found.
 Normal termination of Gaussian 16 at Sun Dec 13 12:28:54 2020.

 --------------------------------------------------------------------
 #N Geom=AllCheck Guess=TCheck SCRF=Check GenChk RB3LYP/6-31G(d) Freq
 --------------------------------------------------------------------

 Structure from the checkpoint file:  "JID_7078.chk"
 -------------------------------
 CID_116136375_JID_7078_neutraal
 -------------------------------
 Charge =  0 Multiplicity = 1

 SCF Done:  E(RB3LYP) =  -679.563306192     A.U. after    1 cycles

  Exact polarizability: 224.224  16.684 146.793  -7.578  12.084 146.862
 Approx polarizability: 275.226  29.489 215.453 -15.743  33.163 238.522

                      1                      2                      3
                      A                      A                      A
 Frequencies --     15.5030                20.8805                38.5560
 Red. masses --      3.7006                 3.3897                 3.4513
 Frc consts  --      0.0005                 0.0009                 0.0030
 IR Inten    --      0.0685                 0.0208                 0.0159

                      4                      5                      6
                      A                      A                      A
 Frequencies --     47.5029                57.6231                82.2780
 Red. masses --      2.6604                 3.3061                 3.2824
 Frc consts  --      0.0035                 0.0065                 0.0131
 IR Inten    --      0.2145                 0.0444                 0.7996

                      7                      8                      9
                      A                      A                      A
 Frequencies --    123.5890               129.1141               160.4631
 Red. masses --      3.0478                 2.4083                 3.0976
 Frc consts  --      0.0274                 0.0237                 0.0470
 IR Inten    --      0.7368                 0.1302                 0.3721

                     10                     11                     12
                      A                      A                      A
 Frequencies --    194.5341               208.5686               231.1053
 Red. masses --      2.7028                 2.3287                 1.4615
 Frc consts  --      0.0603                 0.0597                 0.0460
 IR Inten    --      0.1362                 0.7497                 0.2161

                     13                     14                     15
                      A                      A                      A
 Frequencies --    243.8294               263.2920               280.5511
 Red. masses --      1.6734                 1.1454                 2.3146
 Frc consts  --      0.0586                 0.0468                 0.1073
 IR Inten    --      0.5015                 0.0410                 2.0882

                     16                     17                     18
                      A                      A                      A
 Frequencies --    313.1342               371.3918               378.3193
 Red. masses --      2.6903                 2.9504                 2.7355
 Frc consts  --      0.1554                 0.2398                 0.2307
 IR Inten    --      0.5474                 0.8131                 0.5748

                     19                     20                     21
                      A                      A                      A
 Frequencies --    410.8607               418.4748               420.8371
 Red. masses --      2.4130                 2.3853                 2.9862
 Frc consts  --      0.2400                 0.2461                 0.3116
 IR Inten    --      0.6000                 1.3361                 0.1690

                     22                     23                     24
                      A                      A                      A
 Frequencies --    471.0294               526.0004               555.4741
 Red. masses --      2.9736                 2.7681                 2.6957
 Frc consts  --      0.3887                 0.4512                 0.4901
 IR Inten    --      0.4049                 3.0208                10.2988

                     25                     26                     27
                      A                      A                      A
 Frequencies --    589.1253               624.3428               657.8884
 Red. masses --      2.7623                 2.0774                 6.9331
 Frc consts  --      0.5649                 0.4771                 1.7680
 IR Inten    --      3.7917                 1.6711                 0.2582

                     28                     29                     30
                      A                      A                      A
 Frequencies --    722.0270               739.4978               751.9870
 Red. masses --      2.9084                 1.4037                 3.3511
 Frc consts  --      0.8933                 0.4523                 1.1165
 IR Inten    --      5.1390                25.2714                 2.6407

                     31                     32                     33
                      A                      A                      A
 Frequencies --    781.3893               797.1157               834.0559
 Red. masses --      1.3558                 1.2419                 1.7883
 Frc consts  --      0.4877                 0.4649                 0.7330
 IR Inten    --     75.2690                 3.7111                22.5004

                     34                     35                     36
                      A                      A                      A
 Frequencies --    845.7146               859.2653               865.6290
 Red. masses --      2.4523                 1.4964                 1.6180
 Frc consts  --      1.0334                 0.6510                 0.7143
 IR Inten    --      5.0892                 2.2572                 9.3849

                     37                     38                     39
                      A                      A                      A
 Frequencies --    901.2713               908.4647               928.7692
 Red. masses --      2.1421                 2.5609                 1.9858
 Frc consts  --      1.0252                 1.2453                 1.0093
 IR Inten    --      0.7782                 1.0778                 5.7091

                     40                     41                     42
                      A                      A                      A
 Frequencies --    941.9756               942.4039               950.9295
 Red. masses --      2.1533                 1.1724                 2.2755
 Frc consts  --      1.1258                 0.6135                 1.2123
 IR Inten    --      0.7763                 0.8730                 0.6633

                     43                     44                     45
                      A                      A                      A
 Frequencies --    960.2557               974.8948               976.5236
 Red. masses --      1.3370                 1.4763                 1.3222
 Frc consts  --      0.7264                 0.8267                 0.7428
 IR Inten    --      0.7964                 0.1085                 3.3224

                     46                     47                     48
                      A                      A                      A
 Frequencies --    981.9312               991.7246              1010.8839
 Red. masses --      1.3597                 2.0592                 1.9839
 Frc consts  --      0.7724                 1.1933                 1.1945
 IR Inten    --      1.3154                 2.7725                11.2984

                     49                     50                     51
                      A                      A                      A
 Frequencies --   1043.4331              1050.7824              1087.8417
 Red. masses --      2.9275                 1.7112                 1.5618
 Frc consts  --      1.8779                 1.1132                 1.0890
 IR Inten    --     10.2645                 7.9657                10.0601

                     52                     53                     54
                      A                      A                      A
 Frequencies --   1111.1507              1135.9429              1138.9113
 Red. masses --      2.2610                 2.2989                 2.1858
 Frc consts  --      1.6448                 1.7478                 1.6704
 IR Inten    --     17.7012                 0.7811                16.9166

                     55                     56                     57
                      A                      A                      A
 Frequencies --   1142.2091              1145.5720              1183.6245
 Red. masses --      1.4912                 2.2037                 2.8891
 Frc consts  --      1.1462                 1.7039                 2.3848
 IR Inten    --      5.0999                 3.2171                27.0674

                     58                     59                     60
                      A                      A                      A
 Frequencies --   1188.8888              1208.9149              1214.7647
 Red. masses --      1.8485                 1.2900                 1.1691
 Frc consts  --      1.5394                 1.1108                 1.0165
 IR Inten    --      4.1873                 1.7027                 1.5708

                     61                     62                     63
                      A                      A                      A
 Frequencies --   1233.8227              1240.2747              1243.9785
 Red. masses --      1.3743                 1.5375                 1.7976
 Frc consts  --      1.2327                 1.3935                 1.6390
 IR Inten    --      5.3867                 1.6003                 0.3335

                     64                     65                     66
                      A                      A                      A
 Frequencies --   1248.5965              1270.0062              1278.9034
 Red. masses --      2.1257                 1.3011                 1.2334
 Frc consts  --      1.9525                 1.2364                 1.1885
 IR Inten    --      0.8774                 0.0602                 1.7573

                     67                     68                     69
                      A                      A                      A
 Frequencies --   1283.1890              1297.1686              1311.5999
 Red. masses --      1.3886                 1.3817                 1.3614
 Frc consts  --      1.3471                 1.3698                 1.3799
 IR Inten    --      1.2586                 4.4953                 1.5658

                     70                     71                     72
                      A                      A                      A
 Frequencies --   1322.8240              1330.2131              1354.8242
 Red. masses --      1.5825                 2.0091                 1.6985
 Frc consts  --      1.6316                 2.0945                 1.8369
 IR Inten    --      5.9725                 3.4672                 6.0301

                     73                     74                     75
                      A                      A                      A
 Frequencies --   1363.8229              1371.5895              1395.3919
 Red. masses --      1.3241                 1.3356                 1.8081
 Frc consts  --      1.4511                 1.4803                 2.0743
 IR Inten    --      2.9983                11.2056                10.2747

                     76                     77                     78
                      A                      A                      A
 Frequencies --   1405.6278              1413.3104              1425.8796
 Red. masses --      1.3502                 1.4365                 1.2902
 Frc consts  --      1.5718                 1.6906                 1.5455
 IR Inten    --     13.6073                29.0761                 1.5278

                     79                     80                     81
                      A                      A                      A
 Frequencies --   1425.9694              1446.4753              1473.6544
 Red. masses --      1.4101                 1.2292                 2.2514
 Frc consts  --      1.6894                 1.5153                 2.8807
 IR Inten    --      1.4644                 1.3027                10.9502

                     82                     83                     84
                      A                      A                      A
 Frequencies --   1505.0251              1507.3647              1511.0883
 Red. masses --      1.0833                 1.1175                 1.1292
 Frc consts  --      1.4458                 1.4960                 1.5191
 IR Inten    --      9.0046                 8.4327                 9.0036

                     85                     86                     87
                      A                      A                      A
 Frequencies --   1515.8618              1517.5209              1521.1616
 Red. masses --      1.1040                 1.0443                 1.0486
 Frc consts  --      1.4946                 1.4170                 1.4296
 IR Inten    --      1.1426                 0.0261                 2.0529

                     88                     89                     90
                      A                      A                      A
 Frequencies --   1521.2776              1532.6000              1537.4760
 Red. masses --      1.1441                 1.0485                 1.0870
 Frc consts  --      1.5601                 1.4510                 1.5140
 IR Inten    --     30.0883                 7.9563                 2.3565

                     91                     92                     93
                      A                      A                      A
 Frequencies --   1539.9636              1542.3510              1566.6603
 Red. masses --      1.0866                 1.1341                 2.3582
 Frc consts  --      1.5183                 1.5895                 3.4102
 IR Inten    --      5.6235                 0.1673                19.3971

                     94                     95                     96
                      A                      A                      A
 Frequencies --   1634.8116              1677.6578              2955.8755
 Red. masses --      6.0253                 5.8569                 1.0714
 Frc consts  --      9.4877                 9.7124                 5.5156
 IR Inten    --      0.1916                 0.1602                52.4651

                     97                     98                     99
                      A                      A                      A
 Frequencies --   3020.9188              3023.9751              3032.9770
 Red. masses --      1.0855                 1.0643                 1.0842
 Frc consts  --      5.8365                 5.7342                 5.8765
 IR Inten    --     31.6422                13.4313                17.4139

                    100                    101                    102
                      A                      A                      A
 Frequencies --   3036.5314              3038.6631              3043.5141
 Red. masses --      1.0784                 1.0651                 1.0347
 Frc consts  --      5.8584                 5.7944                 5.6471
 IR Inten    --     33.6515                32.7885                26.3263

                    103                    104                    105
                      A                      A                      A
 Frequencies --   3047.7858              3054.6068              3059.4187
 Red. masses --      1.0353                 1.0588                 1.0801
 Frc consts  --      5.6662                 5.8207                 5.9566
 IR Inten    --     34.4485                51.1910                18.3022

                    106                    107                    108
                      A                      A                      A
 Frequencies --   3062.2594              3070.5954              3081.9406
 Red. masses --      1.0802                 1.0622                 1.1037
 Frc consts  --      5.9683                 5.9005                 6.1766
 IR Inten    --     50.9681                42.8892                69.4062

                    109                    110                    111
                      A                      A                      A
 Frequencies --   3103.6505              3107.5200              3109.0500
 Red. masses --      1.1053                 1.1026                 1.1071
 Frc consts  --      6.2729                 6.2732                 6.3049
 IR Inten    --     20.5677                 0.0529                24.7519

                    112                    113                    114
                      A                      A                      A
 Frequencies --   3113.9717              3120.6833              3122.4928
 Red. masses --      1.1017                 1.1027                 1.1022
 Frc consts  --      6.2944                 6.3272                 6.3319
 IR Inten    --     90.8049                24.8913                33.1773

                    115                    116                    117
                      A                      A                      A
 Frequencies --   3126.5120              3169.1242              3173.9292
 Red. masses --      1.1081                 1.0867                 1.0886
 Frc consts  --      6.3820                 6.4301                 6.4613
 IR Inten    --     80.1676                20.8499                16.8226

                    118                    119                    120
                      A                      A                      A
 Frequencies --   3189.1944              3213.0321              3497.0858
 Red. masses --      1.0934                 1.0920                 1.0738
 Frc consts  --      6.5521                 6.6420                 7.7372
 IR Inten    --     24.5130                 6.2348                 0.6885

 - Thermochemistry -
 -------------------
 Temperature   298.150 Kelvin.  Pressure   1.00000 Atm.
 Atom     1 has atomic number  6 and mass  12.00000

 Molecular mass:   231.19870 amu.
 Principal axes and moments of inertia in atomic units:
                           1         2         3
     Eigenvalues --  1710.57185********************
           X            0.99999   0.00386  -0.00013
           Y           -0.00386   0.99999  -0.00362
           Z            0.00011   0.00362   0.99999
 This molecule is an asymmetric top.
 Rotational symmetry number  1.
 Warning -- assumption of classical behavior for rotation
           may cause significant error
 Rotational temperatures (Kelvin)      0.05063     0.00734     0.00696
 Rotational constants (GHZ):           1.05505     0.15290     0.14506
 Zero-point vibrational energy    1001850.1 (Joules/Mol)
                                  239.44793 (Kcal/Mol)
 Warning -- explicit consideration of  25 degrees of freedom as
           vibrations may cause significant error
 Vibrational temperatures:     22.31    30.04    55.47    68.35    82.91
          (Kelvin)            118.38   177.82   185.77   230.87   279.89
                              300.08   332.51   350.82   378.82   403.65
                              450.53   534.35   544.32   591.14   602.09
                              605.49   677.71   756.80   799.20   847.62
                              898.29   946.55  1038.84  1063.97  1081.94
                             1124.24  1146.87  1200.02  1216.79  1236.29
                             1245.45  1296.73  1307.08  1336.29  1355.29
                             1355.91  1368.18  1381.59  1402.66  1405.00
                             1412.78  1426.87  1454.44  1501.27  1511.84
                             1565.16  1598.70  1634.37  1638.64  1643.38
                             1648.22  1702.97  1710.55  1739.36  1747.78
                             1775.20  1784.48  1789.81  1796.45  1827.26
                             1840.06  1846.22  1866.34  1887.10  1903.25
                             1913.88  1949.29  1962.24  1973.41  2007.66
                             2022.38  2033.44  2051.52  2051.65  2081.16
                             2120.26  2165.40  2168.76  2174.12  2180.99
                             2183.37  2188.61  2188.78  2205.07  2212.09
                             2215.66  2219.10  2254.07  2352.13  2413.78
                             4252.85  4346.43  4350.83  4363.78  4368.89
                             4371.96  4378.94  4385.08  4394.90  4401.82
                             4405.91  4417.90  4434.23  4465.46  4471.03
                             4473.23  4480.31  4489.97  4492.57  4498.35
                             4559.66  4566.58  4588.54  4622.84  5031.53

 Zero-point correction=                           0.381585 (Hartree/Particle)
 Thermal correction to Energy=                    0.399358
 Thermal correction to Enthalpy=                  0.400302
 Thermal correction to Gibbs Free Energy=         0.332903
 Sum of electronic and zero-point Energies=           -679.181722
 Sum of electronic and thermal Energies=              -679.163948
 Sum of electronic and thermal Enthalpies=            -679.163004
 Sum of electronic and thermal Free Energies=         -679.230403

                     E (Thermal)             CV                S
                      KCal/Mol        Cal/Mol-Kelvin    Cal/Mol-Kelvin
 Total                  250.601             67.628            141.853
 Electronic               0.000              0.000              0.000
 Translational            0.889              2.981             42.216
 Rotational               0.889              2.981             33.884
 Vibrational            248.823             61.667             65.753
 Vibration     1          0.593              1.986              7.140
 Vibration     2          0.593              1.986              6.549
 Vibration     3          0.594              1.981              5.332
 Vibration     4          0.595              1.979              4.919
 Vibration     5          0.596              1.974              4.537
 Vibration     6          0.600              1.961              3.836
 Vibration     7          0.610              1.929              3.043
 Vibration     8          0.612              1.924              2.959
 Vibration     9          0.622              1.891              2.544
 Vibration    10          0.635              1.847              2.184
 Vibration    11          0.642              1.828              2.056
 Vibration    12          0.653              1.793              1.870
 Vibration    13          0.659              1.773              1.775
 Vibration    14          0.670              1.740              1.640
 Vibration    15          0.680              1.710              1.530
 Vibration    16          0.701              1.649              1.346
 Vibration    17          0.743              1.531              1.074
 Vibration    18          0.749              1.516              1.046
 Vibration    19          0.775              1.447              0.924
 Vibration    20          0.781              1.430              0.897
 Vibration    21          0.783              1.425              0.889
 Vibration    22          0.828              1.314              0.735
 Vibration    23          0.881              1.192              0.596
 Vibration    24          0.911              1.128              0.533
 Vibration    25          0.946              1.055              0.469

 Optimization completed on the basis of negligible forces.
    -- Stationary point found.
 Normal termination of Gaussian 16 at Sun Dec 13 12:44:25 2020.

 ----------------------------------------------------------------------
 # B3LYP/6-311++G(d,p) empiricaldispersion=gd3bj scf=xqc pop=npa geom=c
 heck
 ----------------------------------------------------------------------

 ---------------------------------------
 CID_116136375_JID_7078_Energie_neutraal
 ---------------------------------------
 Structure from the checkpoint file:  "JID_7078.chk"
 Charge =  0 Multiplicity = 1

 SCF Done:  E(RB3LYP) =  -679.745171637     A.U. after   13 cycles
 Normal termination of Gaussian 16 at Sun Dec 13 12:51:51 2020.

 ----------------------------------------------------------------------
 # B3LYP/6-311++G(d,p) empiricaldispersion=gd3bj scf=xqc pop=npa geom=c
 heck
 ----------------------------------------------------------------------

 -------------------------------------
 CID_116136375_JID_7078_Energie_kation
 -------------------------------------
 Structure from the checkpoint file:  "JID_7078.chk"
 Charge =  1 Multiplicity = 2

 SCF Done:  E(UB3LYP) =  -679.458061999     A.U. after   23 cycles
 Normal termination of Gaussian 16 at Sun Dec 13 13:10:23 2020.
 Gaussian 16:  ES64L-G16RevA.03 25-Dec-2016

 ----------------------------------------------------------------------
 # B3LYP/6-311++G(d,p) empiricaldispersion=gd3bj scf=xqc pop=npa geom=c
 heck
 ----------------------------------------------------------------------

 ------------------------------------
 CID_116136375_JID_7078_Energie_anion
 ------------------------------------
 Structure from the checkpoint file:  "JID_7078.chk"
 Charge = -1 Multiplicity = 2

                         Standard orientation:
 ---------------------------------------------------------------------
 Center     Atomic      Atomic             Coordinates (Angstroms)
 Number     Number       Type             X           Y           Z
 ---------------------------------------------------------------------
      1          6           0        4.941330    1.961386   -0.717627
      2          6           0        4.847815    0.449726   -0.450065
      3          6           0        5.807026    0.028887    0.675925
      4          6           0        3.419956    0.021197   -0.158013
      5          6           0        2.750900   -0.871312   -1.003385
      6          6           0        1.440435   -1.270252   -0.746445
      7          6           0        0.755162   -0.783515    0.371560
      8          6           0        1.415863    0.115084    1.215162
      9          6           0        2.727768    0.508073    0.957949
     10          6           0       -0.659617   -1.229825    0.669331
     11          7           0       -1.457414   -1.315375   -0.550637
     12          6           0       -2.819701   -1.810150   -0.362326
     13          6           0       -3.726945   -1.008494    0.591565
     14          6           0       -3.858504    0.456212    0.200759
     15          6           0       -4.537104    0.815731   -1.152557
     16          6           0       -5.206402    2.025334   -0.449609
     17          6           0       -4.918163    1.341274    0.912554
     18          1           0        4.651369    2.536703    0.169361
     19          1           0        4.279592    2.257580   -1.538393
     20          1           0        5.966641    2.246968   -0.980630
     21          1           0        5.161977   -0.069465   -1.365462
     22          1           0        5.551897    0.528434    1.617804
     23          1           0        5.761686   -1.051555    0.848491
     24          1           0        6.840605    0.295520    0.425774
     25          1           0        3.267205   -1.259917   -1.878590
     26          1           0        0.928281   -1.953512   -1.416587
     27          1           0        0.895531    0.513288    2.083715
     28          1           0        3.213911    1.209047    1.631737
     29          1           0       -0.649449   -2.236397    1.114134
     30          1           0       -1.086357   -0.563162    1.440002
     31          1           0       -1.474419   -0.403792   -1.003860
     32          1           0       -3.287921   -1.846903   -1.354004
     33          1           0       -2.749918   -2.847749   -0.009421
     34          1           0       -4.723053   -1.473964    0.591293
     35          1           0       -3.354336   -1.082210    1.622458
     36          1           0       -2.878403    0.947943    0.259667
     37          1           0       -3.894886    1.013979   -2.017053
     38          1           0       -5.274712    0.055159   -1.435592
     39          1           0       -6.248900    2.245333   -0.698806
     40          1           0       -4.618393    2.940664   -0.574468
     41          1           0       -5.770404    0.739669    1.249769
     42          1           0       -4.584564    1.969828    1.744444
 ---------------------------------------------------------------------

 SCF Done:  E(UB3LYP) =  -679.730762664     A.U. after   33 cycles
 SCF Done:  E(UB3LYP) =  -679.730762664     a.u. after    1 cycles

 The electronic state is 2-A.
 Alpha  occ. eigenvalues --  -14.21055 -10.10899 -10.10579 -10.09150 -10.08861
 Alpha  occ. eigenvalues --  -10.08837 -10.08546 -10.08289 -10.08204 -10.08116
 Alpha  occ. eigenvalues --  -10.08046 -10.07924 -10.07917 -10.07791 -10.07634
 Alpha  occ. eigenvalues --  -10.07123 -10.07037  -0.82342  -0.77132  -0.76080
 Alpha  occ. eigenvalues --   -0.71751  -0.67405  -0.65631  -0.64612  -0.59671
 Alpha  occ. eigenvalues --   -0.59147  -0.57208  -0.55842  -0.52380  -0.51251
 Alpha  occ. eigenvalues --   -0.50180  -0.47287  -0.45946  -0.42456  -0.40143
 Alpha  occ. eigenvalues --   -0.39173  -0.38976  -0.37808  -0.36033  -0.35406
 Alpha  occ. eigenvalues --   -0.34488  -0.34001  -0.33695  -0.32759  -0.32682
 Alpha  occ. eigenvalues --   -0.32137  -0.30576  -0.30104  -0.29918  -0.28418
 Alpha  occ. eigenvalues --   -0.27146  -0.26777  -0.26477  -0.25924  -0.25379
 Alpha  occ. eigenvalues --   -0.24937  -0.23908  -0.23533  -0.22884  -0.21895
 Alpha  occ. eigenvalues --   -0.21183  -0.16521  -0.15313  -0.13818   0.03988
 Alpha virt. eigenvalues --    0.05216   0.06302   0.06426   0.06807   0.07344
 Alpha virt. eigenvalues --    0.07416   0.07623   0.07815   0.08242   0.08756
 Alpha virt. eigenvalues --    0.09101   0.09459   0.09740   0.10254   0.10527

  Beta  occ. eigenvalues --  -14.21050 -10.10888 -10.10570 -10.09142 -10.08861
  Beta  occ. eigenvalues --  -10.08836 -10.08539 -10.08281 -10.08200 -10.08101
  Beta  occ. eigenvalues --  -10.08029 -10.07915 -10.07899 -10.07773 -10.07621
  Beta  occ. eigenvalues --  -10.07099 -10.07011  -0.82330  -0.77117  -0.76060
  Beta  occ. eigenvalues --   -0.71731  -0.67382  -0.65612  -0.64587  -0.59620
  Beta  occ. eigenvalues --   -0.59121  -0.57160  -0.55809  -0.52346  -0.51219
  Beta  occ. eigenvalues --   -0.50139  -0.47256  -0.45892  -0.42436  -0.40100
  Beta  occ. eigenvalues --   -0.39146  -0.38951  -0.37778  -0.36007  -0.35378
  Beta  occ. eigenvalues --   -0.34466  -0.33978  -0.33674  -0.32729  -0.32648
  Beta  occ. eigenvalues --   -0.32103  -0.30556  -0.30076  -0.29891  -0.28390
  Beta  occ. eigenvalues --   -0.27123  -0.26757  -0.26451  -0.25899  -0.25355
  Beta  occ. eigenvalues --   -0.24913  -0.23881  -0.23508  -0.22851  -0.21864
  Beta  occ. eigenvalues --   -0.21158  -0.16500  -0.15298  -0.13806
  Beta virt. eigenvalues --    0.05740   0.06091   0.06677   0.06862   0.07063
  Beta virt. eigenvalues --    0.07490   0.07644   0.07735   0.08092   0.08628
  Beta virt. eigenvalues --    0.08886   0.09309   0.09682   0.09980   0.10419

 Mulliken charges and spin densities:
               1          2
     1  C    0.572539  -1.254288
     2  C   -1.598910   1.785416
     3  C    0.566423  -1.244329
     4  C    1.445796  -0.761544
     5  C   -0.674425   0.166948
     6  C   -0.364396  -0.016266
     7  C    2.160623  -1.770945
     8  C    0.173647  -0.461339
     9  C   -1.349687   0.963865
    10  C   -0.586902  -0.038210
    11  N    0.114034  -0.082848
    12  C   -0.491010   0.093287
    13  C    0.366594  -0.584333
    14  C   -0.630798   0.966714
    15  C    0.459358  -0.975830
    16  C   -0.061844  -0.146278
    17  C    0.395316  -0.931491
    18  H   -0.136050   0.284449
    19  H   -0.001069   0.136783
    20  H   -0.306503   0.452412
    21  H   -0.194345   0.373395
    22  H   -0.165434   0.314415
    23  H    0.040522   0.089765
    24  H   -0.278388   0.425623
    25  H   -0.036430   0.177568
    26  H    0.049712   0.153152
    27  H   -0.671271   0.837807
    28  H    0.124551   0.022689
    29  H   -0.007865   0.158438
    30  H    0.525760  -0.399038
    31  H    0.192130   0.001621
    32  H    0.063859   0.115862
    33  H   -0.032575   0.183077
    34  H   -0.238279   0.394544
    35  H   -0.096721   0.259950
    36  H    0.163987  -0.004689
    37  H   -0.032339   0.176446
    38  H   -0.088884   0.223439
    39  H   -0.087328   0.236462
    40  H   -0.066424   0.194262
    41  H   -0.038130   0.158354
    42  H   -0.178844   0.324684
 Sum of Mulliken charges =  -1.00000   1.00000

 Dipole moment (field-independent basis, Debye):
    X=             -2.2484    Y=             -2.8089    Z=             -0.7283  Tot=              3.6709
 Quadrupole moment (field-independent basis, Debye-Ang):
   XX=           -254.6326   YY=           -149.3708   ZZ=           -143.8171
   XY=             -4.9965   XZ=              1.3747   YZ=             -0.3131

 Summary of Natural Population Analysis:

                                       Natural Population
                Natural  -----------------------------------------------
    Atom  No    Charge         Core      Valence    Rydberg      Total
 -----------------------------------------------------------------------
      C    1   -0.28039      0.99965     2.27499    0.00575     3.28039
      C    2   -0.11962      0.99958     2.10938    0.01065     3.11962
      C    3   -0.28020      0.99965     2.27474    0.00581     3.28020
      C    4   -0.01119      0.99949     2.00059    0.01110     3.01119
      C    5   -0.09848      0.99951     2.09067    0.00830     3.09848
      C    6   -0.09506      0.99951     2.08681    0.00874     3.09506
      C    7   -0.02602      0.99950     2.01672    0.00980     3.02602
      C    8   -0.09617      0.99952     2.08675    0.00990     3.09617
      C    9   -0.09914      0.99951     2.09081    0.00882     3.09914
      C   10   -0.09245      0.99959     2.08295    0.00992     3.09245
      N   11   -0.33840      0.99975     2.82778    0.01087     3.83840
      C   12   -0.08369      0.99963     2.07333    0.01074     3.08369
      C   13   -0.20089      0.99960     2.19190    0.00939     3.20089
      C   14   -0.11336      0.99960     2.10286    0.01090     3.11336
      C   15   -0.18789      0.99963     2.18129    0.00697     3.18789
      C   16   -0.18837      0.99965     2.18163    0.00709     3.18837
      C   17   -0.18241      0.99963     2.17573    0.00704     3.18241
      H   18    0.09716      0.00000     0.40174    0.00109     0.40284
      H   19    0.10096      0.00000     0.39814    0.00090     0.39904
      H   20    0.09956      0.00000     0.39932    0.00112     0.40044
      H   21    0.09500      0.00000     0.40305    0.00195     0.40500
      H   22    0.09722      0.00000     0.40170    0.00108     0.40278
      H   23    0.10009      0.00000     0.39904    0.00087     0.39991
      H   24    0.09948      0.00000     0.39947    0.00105     0.40052
      H   25    0.09786      0.00000     0.40076    0.00138     0.40214
      H   26    0.10792      0.00000     0.39076    0.00131     0.39208
      H   27    0.10060      0.00000     0.39814    0.00126     0.39940
      H   28    0.10069      0.00000     0.39782    0.00149     0.39931
      H   29    0.09535      0.00000     0.40344    0.00122     0.40465
      H   30    0.08292      0.00000     0.41417    0.00291     0.41708
      H   31    0.17186      0.00000     0.32466    0.00349     0.32814
      H   32    0.09308      0.00000     0.40573    0.00119     0.40692
      H   33    0.09040      0.00000     0.40842    0.00119     0.40960
      H   34    0.09780      0.00000     0.40076    0.00143     0.40220
      H   35    0.09771      0.00000     0.40100    0.00129     0.40229
      H   36    0.09653      0.00000     0.40184    0.00163     0.40347
      H   37    0.09635      0.00000     0.40246    0.00118     0.40365
      H   38    0.09459      0.00000     0.40396    0.00145     0.40541
      H   39    0.09414      0.00000     0.40451    0.00135     0.40586
      H   40    0.09528      0.00000     0.40319    0.00153     0.40472
      H   41    0.09399      0.00000     0.40440    0.00160     0.40601
      H   42    0.09718      0.00000     0.40147    0.00135     0.40282
 =======================================================================
   * Total *   -0.00000     16.99301    46.81889    0.18810    64.00000

 Normal termination of Gaussian 16 at Sun Dec 13 13:38:07 2020.
