 Gaussian 16, Revision A.03,

 -----------------------------------------------------------
 # opt freq B3LYP/6-31G(d) empiricaldispersion=gd3bj scf=xqc
 -----------------------------------------------------------

 -------------------------------
 CID_110507358_JID_5343_neutraal
 -------------------------------
 Symbolic Z-matrix:
 Charge =  0 Multiplicity = 1

 SCF Done:  E(RB3LYP) =  -688.726203370     A.U. after   14 cycles
 SCF Done:  E(RB3LYP) =  -688.735077532     A.U. after   13 cycles
 SCF Done:  E(RB3LYP) =  -688.738973938     A.U. after   13 cycles
 SCF Done:  E(RB3LYP) =  -688.740512593     A.U. after   13 cycles
 SCF Done:  E(RB3LYP) =  -688.742306830     A.U. after   12 cycles
 SCF Done:  E(RB3LYP) =  -688.743022348     A.U. after   12 cycles
 SCF Done:  E(RB3LYP) =  -688.743260118     A.U. after   11 cycles
 SCF Done:  E(RB3LYP) =  -688.743348346     A.U. after   11 cycles
 SCF Done:  E(RB3LYP) =  -688.743368869     A.U. after   10 cycles
 SCF Done:  E(RB3LYP) =  -688.743374617     A.U. after   10 cycles
 SCF Done:  E(RB3LYP) =  -688.743375649     A.U. after    8 cycles
 SCF Done:  E(RB3LYP) =  -688.743376092     A.U. after    8 cycles
 SCF Done:  E(RB3LYP) =  -688.743376182     A.U. after    7 cycles
 SCF Done:  E(RB3LYP) =  -688.743376216     A.U. after    6 cycles
 Optimization completed.
    -- Stationary point found.
 Normal termination of Gaussian 16 at Thu Dec 10 15:36:43 2020.

 --------------------------------------------------------------------
 #N Geom=AllCheck Guess=TCheck SCRF=Check GenChk RB3LYP/6-31G(d) Freq
 --------------------------------------------------------------------

 Structure from the checkpoint file:  "JID_5343.chk"
 -------------------------------
 CID_110507358_JID_5343_neutraal
 -------------------------------
 Charge =  0 Multiplicity = 1

 SCF Done:  E(RB3LYP) =  -688.743376216     A.U. after    1 cycles

  Exact polarizability: 214.314   9.098 147.251   7.632  -0.971  79.150
 Approx polarizability: 311.119   5.108 226.348  24.152  -2.775 117.476

                      1                      2                      3
                      A                      A                      A
 Frequencies --     42.8944                46.8647                57.2316
 Red. masses --      2.8592                 3.7883                 2.8061
 Frc consts  --      0.0031                 0.0049                 0.0054
 IR Inten    --      0.9155                 0.3476                 1.4630

                      4                      5                      6
                      A                      A                      A
 Frequencies --     77.6219                92.1185               119.9072
 Red. masses --      3.2343                 2.9729                 3.4139
 Frc consts  --      0.0115                 0.0149                 0.0289
 IR Inten    --      1.0588                 2.1759                 9.3072

                      7                      8                      9
                      A                      A                      A
 Frequencies --    137.0298               157.1109               178.5158
 Red. masses --      2.3582                 2.0678                 1.3648
 Frc consts  --      0.0261                 0.0301                 0.0256
 IR Inten    --      2.1456                 0.8264                 5.8386

                     10                     11                     12
                      A                      A                      A
 Frequencies --    233.6328               252.3070               265.0461
 Red. masses --      2.0373                 1.3891                 2.3533
 Frc consts  --      0.0655                 0.0521                 0.0974
 IR Inten    --      1.6746                 0.7805                 0.8053

                     13                     14                     15
                      A                      A                      A
 Frequencies --    290.2626               297.6928               317.8435
 Red. masses --      3.0167                 1.8641                 3.1717
 Frc consts  --      0.1498                 0.0973                 0.1888
 IR Inten    --      2.1770                 8.3198                 2.5259

                     16                     17                     18
                      A                      A                      A
 Frequencies --    338.6975               349.4104               408.0825
 Red. masses --      5.8574                 4.0046                 4.5605
 Frc consts  --      0.3959                 0.2881                 0.4475
 IR Inten    --      2.8658                16.9974                 2.2096

                     19                     20                     21
                      A                      A                      A
 Frequencies --    443.9655               496.0140               516.2395
 Red. masses --      3.5756                 3.8264                 3.7105
 Frc consts  --      0.4152                 0.5547                 0.5826
 IR Inten    --      5.9727                19.9466                31.5259

                     22                     23                     24
                      A                      A                      A
 Frequencies --    569.7345               575.2581               603.9271
 Red. masses --      3.1781                 3.5092                 2.9513
 Frc consts  --      0.6078                 0.6842                 0.6342
 IR Inten    --     84.6350                31.9427               117.0963

                     25                     26                     27
                      A                      A                      A
 Frequencies --    638.7385               660.7172               763.7681
 Red. masses --      3.4746                 3.3137                 2.2133
 Frc consts  --      0.8352                 0.8523                 0.7607
 IR Inten    --     30.2981                56.6608                12.1206

                     28                     29                     30
                      A                      A                      A
 Frequencies --    793.0966               806.7628               821.8037
 Red. masses --      2.8593                 1.4219                 3.0624
 Frc consts  --      1.0596                 0.5453                 1.2186
 IR Inten    --     12.8707                13.3101                 3.4039

                     31                     32                     33
                      A                      A                      A
 Frequencies --    836.2239               895.8514               913.7202
 Red. masses --      2.2345                 2.3078                 1.5128
 Frc consts  --      0.9206                 1.0912                 0.7441
 IR Inten    --     11.4478                15.6467                 1.9881

                     34                     35                     36
                      A                      A                      A
 Frequencies --    951.8088               971.7928               976.1593
 Red. masses --      1.5043                 1.2923                 2.9091
 Frc consts  --      0.8029                 0.7191                 1.6333
 IR Inten    --     11.9794                 2.1697                12.5605

                     37                     38                     39
                      A                      A                      A
 Frequencies --   1001.1326              1048.8807              1078.4227
 Red. masses --      2.6698                 7.7400                 4.1348
 Frc consts  --      1.5766                 5.0170                 2.8332
 IR Inten    --      3.7509                69.6278               108.1254

                     40                     41                     42
                      A                      A                      A
 Frequencies --   1104.1648              1128.3445              1146.5998
 Red. masses --      1.8222                 2.0189                 1.3141
 Frc consts  --      1.3089                 1.5144                 1.0179
 IR Inten    --     23.2123                74.1089                27.1068

                     43                     44                     45
                      A                      A                      A
 Frequencies --   1184.4885              1186.5663              1196.1713
 Red. masses --      1.3089                 2.5722                 1.3491
 Frc consts  --      1.0820                 2.1338                 1.1373
 IR Inten    --     13.4675                54.9960                 8.1112

                     46                     47                     48
                      A                      A                      A
 Frequencies --   1204.8882              1212.7250              1226.7301
 Red. masses --      1.6904                 1.6879                 1.8438
 Frc consts  --      1.4459                 1.4626                 1.6348
 IR Inten    --      3.7008                11.0981                 6.0472

                     49                     50                     51
                      A                      A                      A
 Frequencies --   1252.7375              1284.3398              1318.0263
 Red. masses --      3.0184                 1.9407                 2.2773
 Frc consts  --      2.7909                 1.8861                 2.3308
 IR Inten    --     80.2681                86.1848                86.7164

                     52                     53                     54
                      A                      A                      A
 Frequencies --   1334.9982              1344.2021              1403.1202
 Red. masses --      2.6566                 1.7009                 1.6758
 Frc consts  --      2.7895                 1.8107                 1.9438
 IR Inten    --     24.1893                18.8654                43.5373

                     55                     56                     57
                      A                      A                      A
 Frequencies --   1418.0633              1444.7165              1464.9667
 Red. masses --      1.2883                 1.2940                 1.4159
 Frc consts  --      1.5264                 1.5913                 1.7904
 IR Inten    --      7.5119                27.8005                44.9974

                     58                     59                     60
                      A                      A                      A
 Frequencies --   1480.6859              1502.5797              1509.3572
 Red. masses --      1.3955                 1.0814                 1.3804
 Frc consts  --      1.8026                 1.4385                 1.8529
 IR Inten    --     18.8346                 6.3491                52.4672

                     61                     62                     63
                      A                      A                      A
 Frequencies --   1514.1480              1515.1163              1517.4885
 Red. masses --      1.1385                 1.5969                 1.2056
 Frc consts  --      1.5378                 2.1599                 1.6356
 IR Inten    --      0.2968                 6.0273                 9.5616

                     64                     65                     66
                      A                      A                      A
 Frequencies --   1522.8584              1536.4416              1538.3974
 Red. masses --      1.2390                 1.3320                 1.1506
 Frc consts  --      1.6930                 1.8526                 1.6044
 IR Inten    --     22.6393                 5.3008                 9.7748

                     67                     68                     69
                      A                      A                      A
 Frequencies --   1543.2766              1548.1964              1633.6545
 Red. masses --      1.0558                 1.0768                 5.8354
 Frc consts  --      1.4815                 1.5207                 9.1757
 IR Inten    --      7.8604                46.0472                10.7391

                     70                     71                     72
                      A                      A                      A
 Frequencies --   1647.3107              1686.7603              2994.2944
 Red. masses --      6.3419                 5.1216                 1.0528
 Frc consts  --     10.1396                 8.5855                 5.5615
 IR Inten    --     25.1701                49.3661                55.6681

                     73                     74                     75
                      A                      A                      A
 Frequencies --   3033.5586              3036.1947              3060.0205
 Red. masses --      1.0668                 1.0389                 1.0376
 Frc consts  --      5.7842                 5.6429                 5.7241
 IR Inten    --     53.7453                53.1096                15.9477

                     76                     77                     78
                      A                      A                      A
 Frequencies --   3084.6164              3108.6058              3119.2861
 Red. masses --      1.0850                 1.0980                 1.0951
 Frc consts  --      6.0823                 6.2518                 6.2778
 IR Inten    --     31.7791                25.1651                35.2359

                     79                     80                     81
                      A                      A                      A
 Frequencies --   3129.9582              3145.3697              3149.6708
 Red. masses --      1.0990                 1.0998                 1.1038
 Frc consts  --      6.3437                 6.4106                 6.4518
 IR Inten    --     46.3279                23.5345                30.3522

                     82                     83                     84
                      A                      A                      A
 Frequencies --   3154.2336              3167.2419              3190.8951
 Red. masses --      1.1071                 1.0862                 1.0868
 Frc consts  --      6.4900                 6.4196                 6.5198
 IR Inten    --     19.0068                27.5819                10.3221

                     85                     86                     87
                      A                      A                      A
 Frequencies --   3208.6718              3226.7295              3597.9216
 Red. masses --      1.0933                 1.0930                 1.0773
 Frc consts  --      6.6319                 6.7048                 8.2164
 IR Inten    --     14.0189                 6.6726                18.0749

 - Thermochemistry -
 -------------------
 Temperature   298.150 Kelvin.  Pressure   1.00000 Atm.
 Atom     1 has atomic number  6 and mass  12.00000

 Molecular mass:   208.12118 amu.
 Principal axes and moments of inertia in atomic units:
                           1         2         3
     Eigenvalues --  1760.709255158.341666208.69275
           X            0.99991   0.00774  -0.01076
           Y           -0.00778   0.99996  -0.00410
           Z            0.01073   0.00418   0.99993
 This molecule is an asymmetric top.
 Rotational symmetry number  1.
 Warning -- assumption of classical behavior for rotation
           may cause significant error
 Rotational temperatures (Kelvin)      0.04919     0.01679     0.01395
 Rotational constants (GHZ):           1.02501     0.34987     0.29068
 Zero-point vibrational energy     687767.1 (Joules/Mol)
                                  164.38028 (Kcal/Mol)
 Warning -- explicit consideration of  24 degrees of freedom as
           vibrations may cause significant error
 Vibrational temperatures:     61.72    67.43    82.34   111.68   132.54
          (Kelvin)            172.52   197.16   226.05   256.84   336.15
                              363.01   381.34   417.62   428.31   457.31
                              487.31   502.72   587.14   638.77   713.65
                              742.75   819.72   827.67   868.92   919.00
                              950.62  1098.89  1141.09  1160.75  1182.39
                             1203.14  1288.93  1314.64  1369.44  1398.19
                             1404.48  1440.41  1509.11  1551.61  1588.65
                             1623.44  1649.70  1704.21  1707.20  1721.02
                             1733.57  1744.84  1764.99  1802.41  1847.88
                             1896.35  1920.76  1934.01  2018.78  2040.28
                             2078.62  2107.76  2130.38  2161.88  2171.63
                             2178.52  2179.91  2183.33  2191.05  2210.60
                             2213.41  2220.43  2227.51  2350.46  2370.11
                             2426.87  4308.12  4364.61  4368.41  4402.69
                             4438.08  4472.59  4487.96  4503.31  4525.49
                             4531.67  4538.24  4556.95  4590.99  4616.56
                             4642.54  5176.61

 Zero-point correction=                           0.261957 (Hartree/Particle)
 Thermal correction to Energy=                    0.277675
 Thermal correction to Enthalpy=                  0.278619
 Thermal correction to Gibbs Free Energy=         0.218282
 Sum of electronic and zero-point Energies=           -688.481420
 Sum of electronic and thermal Energies=              -688.465701
 Sum of electronic and thermal Enthalpies=            -688.464757
 Sum of electronic and thermal Free Energies=         -688.525094

                     E (Thermal)             CV                S
                      KCal/Mol        Cal/Mol-Kelvin    Cal/Mol-Kelvin
 Total                  174.244             57.720            126.990
 Electronic               0.000              0.000              0.000
 Translational            0.889              2.981             41.903
 Rotational               0.889              2.981             32.400
 Vibrational            172.466             51.759             52.687
 Vibration     1          0.595              1.980              5.121
 Vibration     2          0.595              1.979              4.945
 Vibration     3          0.596              1.975              4.550
 Vibration     4          0.599              1.964              3.950
 Vibration     5          0.602              1.955              3.615
 Vibration     6          0.609              1.933              3.102
 Vibration     7          0.614              1.916              2.845
 Vibration     8          0.621              1.895              2.584
 Vibration     9          0.629              1.869              2.344
 Vibration    10          0.654              1.789              1.851
 Vibration    11          0.664              1.759              1.714
 Vibration    12          0.671              1.737              1.628
 Vibration    13          0.686              1.692              1.472
 Vibration    14          0.691              1.678              1.430
 Vibration    15          0.704              1.639              1.321
 Vibration    16          0.719              1.598              1.218
 Vibration    17          0.727              1.576              1.169
 Vibration    18          0.773              1.453              0.933
 Vibration    19          0.803              1.374              0.814
 Vibration    20          0.852              1.259              0.668
 Vibration    21          0.871              1.214              0.619
 Vibration    22          0.926              1.097              0.505
 Vibration    23          0.932              1.085              0.494
 Vibration    24          0.962              1.023              0.443

 Optimization completed.
    -- Stationary point found.
 Normal termination of Gaussian 16 at Thu Dec 10 15:45:49 2020.

 ----------------------------------------------------------------------
 # B3LYP/6-311++G(d,p) empiricaldispersion=gd3bj scf=xqc pop=npa geom=c
 heck
 ----------------------------------------------------------------------

 ---------------------------------------
 CID_110507358_JID_5343_Energie_neutraal
 ---------------------------------------
 Structure from the checkpoint file:  "JID_5343.chk"
 Charge =  0 Multiplicity = 1

 SCF Done:  E(RB3LYP) =  -688.936242856     A.U. after   15 cycles
 Normal termination of Gaussian 16 at Thu Dec 10 15:49:57 2020.

 ----------------------------------------------------------------------
 # B3LYP/6-311++G(d,p) empiricaldispersion=gd3bj scf=xqc pop=npa geom=c
 heck
 ----------------------------------------------------------------------

 -------------------------------------
 CID_110507358_JID_5343_Energie_kation
 -------------------------------------
 Structure from the checkpoint file:  "JID_5343.chk"
 Charge =  1 Multiplicity = 2

 SCF Done:  E(UB3LYP) =  -688.666130925     A.U. after   25 cycles
 Normal termination of Gaussian 16 at Thu Dec 10 16:00:03 2020.
 Gaussian 16:  ES64L-G16RevA.03 25-Dec-2016

 ----------------------------------------------------------------------
 # B3LYP/6-311++G(d,p) empiricaldispersion=gd3bj scf=xqc pop=npa geom=c
 heck
 ----------------------------------------------------------------------

 ------------------------------------
 CID_110507358_JID_5343_Energie_anion
 ------------------------------------
 Structure from the checkpoint file:  "JID_5343.chk"
 Charge = -1 Multiplicity = 2

                         Standard orientation:
 ---------------------------------------------------------------------
 Center     Atomic      Atomic             Coordinates (Angstroms)
 Number     Number       Type             X           Y           Z
 ---------------------------------------------------------------------
      1          6           0        3.093796   -1.250838   -1.639185
      2          6           0        3.691351   -0.410567   -0.519801
      3          8           0        2.809456   -0.277797    0.606918
      4          6           0        1.700972    0.513996    0.390862
      5          6           0        1.809121    1.903291    0.389465
      6          6           0        0.668441    2.688059    0.198935
      7          6           0       -0.571611    2.089823    0.016440
      8          6           0       -0.704590    0.690252    0.029231
      9          6           0        0.449057   -0.095544    0.211097
     10          8           0        0.339797   -1.468366    0.162651
     11          6           0        0.554705   -2.127253    1.413734
     12          6           0       -1.999178    0.029682   -0.150842
     13          7           0       -3.078080    0.727966   -0.258502
     14          7           0       -4.262964    0.103846   -0.487439
     15          6           0       -4.449980   -1.307943   -0.198206
     16          1           0        2.818055   -2.242990   -1.271438
     17          1           0        3.821169   -1.361902   -2.451915
     18          1           0        2.194097   -0.778888   -2.045272
     19          1           0        4.590674   -0.880642   -0.111417
     20          1           0        3.965926    0.587969   -0.887364
     21          1           0        2.785138    2.352743    0.545587
     22          1           0        0.753919    3.770916    0.195594
     23          1           0       -1.464438    2.686610   -0.133531
     24          1           0        1.568432   -1.946428    1.781469
     25          1           0       -0.176755   -1.788588    2.159277
     26          1           0        0.412720   -3.193784    1.223539
     27          1           0       -1.981283   -1.057675   -0.198834
     28          1           0       -5.021870    0.703024   -0.192129
     29          1           0       -4.087984   -1.584407    0.806043
     30          1           0       -5.516775   -1.531938   -0.272485
     31          1           0       -3.920247   -1.925152   -0.932478
 ---------------------------------------------------------------------

 SCF Done:  E(UB3LYP) =  -688.926107258     A.U. after   33 cycles
 SCF Done:  E(UB3LYP) =  -688.926107257     a.u. after    1 cycles

 The electronic state is 2-A.
 Alpha  occ. eigenvalues --  -19.03271 -19.02515 -14.22065 -14.19411 -10.12969
 Alpha  occ. eigenvalues --  -10.10697 -10.10443 -10.10025 -10.07679 -10.06912
 Alpha  occ. eigenvalues --  -10.05379 -10.05332 -10.04796 -10.04631 -10.04046
 Alpha  occ. eigenvalues --   -0.95457  -0.93289  -0.87077  -0.73459  -0.69887
 Alpha  occ. eigenvalues --   -0.66749  -0.63673  -0.61794  -0.58134  -0.56963
 Alpha  occ. eigenvalues --   -0.53910  -0.50150  -0.47516  -0.43676  -0.41290
 Alpha  occ. eigenvalues --   -0.40365  -0.38296  -0.38267  -0.36770  -0.36054
 Alpha  occ. eigenvalues --   -0.34712  -0.34163  -0.33239  -0.32647  -0.31512
 Alpha  occ. eigenvalues --   -0.30233  -0.29255  -0.28793  -0.27512  -0.26673
 Alpha  occ. eigenvalues --   -0.25242  -0.24963  -0.23900  -0.23540  -0.21701
 Alpha  occ. eigenvalues --   -0.18377  -0.16633  -0.15055  -0.13880  -0.11869
 Alpha  occ. eigenvalues --   -0.08188   0.04918
 Alpha virt. eigenvalues --    0.06608   0.06998   0.07892   0.08420   0.09197
 Alpha virt. eigenvalues --    0.09734   0.10396   0.10946   0.11443   0.11473
 Alpha virt. eigenvalues --    0.11775   0.11940   0.12636   0.13947   0.14334

  Beta  occ. eigenvalues --  -19.03271 -19.02519 -14.22005 -14.19061 -10.12960
  Beta  occ. eigenvalues --  -10.10680 -10.10427 -10.09984 -10.07628 -10.06909
  Beta  occ. eigenvalues --  -10.05406 -10.05317 -10.04657 -10.04473 -10.03976
  Beta  occ. eigenvalues --   -0.95436  -0.93277  -0.86696  -0.73267  -0.69628
  Beta  occ. eigenvalues --   -0.66702  -0.63479  -0.61599  -0.58042  -0.56860
  Beta  occ. eigenvalues --   -0.53819  -0.49863  -0.47470  -0.43558  -0.41217
  Beta  occ. eigenvalues --   -0.40242  -0.38249  -0.38144  -0.36649  -0.35941
  Beta  occ. eigenvalues --   -0.34647  -0.34115  -0.33215  -0.32367  -0.31457
  Beta  occ. eigenvalues --   -0.30117  -0.29227  -0.28749  -0.27402  -0.26508
  Beta  occ. eigenvalues --   -0.25181  -0.24662  -0.23610  -0.23181  -0.21253
  Beta  occ. eigenvalues --   -0.18324  -0.16546  -0.14316  -0.13495  -0.11514
  Beta  occ. eigenvalues --   -0.07390
  Beta virt. eigenvalues --    0.06527   0.07749   0.08179   0.08414   0.08905
  Beta virt. eigenvalues --    0.09335   0.09935   0.10469   0.11154   0.11509
  Beta virt. eigenvalues --    0.11758   0.11908   0.12073   0.12823   0.13951

 Mulliken charges and spin densities:
               1          2
     1  C   -0.308204  -0.177697
     2  C   -0.147919   0.045747
     3  O   -0.122775  -0.000962
     4  C   -0.949470   0.077321
     5  C    0.172484   0.089900
     6  C   -0.488952  -0.109663
     7  C   -0.403354   0.238857
     8  C    1.085945  -0.177500
     9  C   -0.789790  -0.369528
    10  O   -0.104033   0.001612
    11  C    0.082153  -0.342886
    12  C    0.192538   0.400159
    13  N   -0.002411   0.124142
    14  N   -0.282797   0.246998
    15  C    1.049262  -1.430648
    16  H    0.086250   0.065699
    17  H    0.095733   0.027474
    18  H    0.112185   0.049500
    19  H    0.130329   0.003201
    20  H    0.074636   0.028363
    21  H    0.132739  -0.012474
    22  H    0.128235   0.001422
    23  H    0.149476   0.015485
    24  H    0.159621   0.023984
    25  H    0.068377   0.049150
    26  H   -0.111378   0.249821
    27  H    0.351792  -0.154948
    28  H    0.145690   0.090541
    29  H   -0.242686   0.378538
    30  H   -1.053676   1.209750
    31  H   -0.210002   0.358642
 Sum of Mulliken charges =  -1.00000   1.00000

 Dipole moment (field-independent basis, Debye):
    X=             10.3350    Y=              2.2554    Z=              0.1963  Tot=             10.5801
 Quadrupole moment (field-independent basis, Debye-Ang):
   XX=           -169.5940   YY=           -121.3731   ZZ=           -111.2089
   XY=            -16.7311   XZ=             -5.6723   YZ=             -0.0071

 Summary of Natural Population Analysis:

                                       Natural Population
                Natural  -----------------------------------------------
    Atom  No    Charge         Core      Valence    Rydberg      Total
 -----------------------------------------------------------------------
      C    1   -0.30277      0.99966     2.29815    0.00496     3.30277
      C    2   -0.00406      0.99958     1.99362    0.01086     3.00406
      O    3   -0.29882      0.99986     3.28846    0.01050     4.29882
      C    4    0.12609      0.99929     1.86021    0.01441     2.87391
      C    5   -0.09992      0.99945     2.09218    0.00829     3.09992
      C    6   -0.11493      0.99959     2.10700    0.00834     3.11493
      C    7   -0.08287      0.99954     2.07451    0.00881     3.08287
      C    8   -0.02820      0.99947     2.01771    0.01101     3.02820
      C    9    0.14212      0.99929     1.84394    0.01465     2.85788
      O   10   -0.29349      0.99986     3.28282    0.01081     4.29349
      C   11   -0.09939      0.99959     2.09028    0.00952     3.09939
      C   12   -0.01771      0.99959     2.00265    0.01547     3.01771
      N   13   -0.07933      0.99966     2.56632    0.01334     3.57933
      N   14   -0.21158      0.99974     2.69604    0.01580     3.71158
      C   15   -0.19531      0.99966     2.18711    0.00854     3.19531
      H   16    0.10296      0.00000     0.39578    0.00126     0.39704
      H   17    0.09392      0.00000     0.40506    0.00102     0.40608
      H   18    0.10809      0.00000     0.39073    0.00118     0.39191
      H   19    0.08245      0.00000     0.41630    0.00126     0.41755
      H   20    0.07909      0.00000     0.41907    0.00183     0.42091
      H   21    0.09411      0.00000     0.40422    0.00167     0.40589
      H   22    0.09278      0.00000     0.40629    0.00093     0.40722
      H   23    0.10646      0.00000     0.39229    0.00125     0.39354
      H   24    0.08864      0.00000     0.41012    0.00124     0.41136
      H   25    0.08195      0.00000     0.41700    0.00105     0.41805
      H   26    0.08633      0.00000     0.41250    0.00117     0.41367
      H   27    0.08549      0.00000     0.41181    0.00270     0.41451
      H   28    0.17519      0.00000     0.32192    0.00290     0.32481
      H   29    0.08982      0.00000     0.40754    0.00265     0.41018
      H   30    0.10051      0.00000     0.39672    0.00277     0.39949
      H   31    0.09245      0.00000     0.40598    0.00157     0.40755
 =======================================================================
   * Total *    0.00005     14.99385    40.81435    0.19174    55.99995

 Normal termination of Gaussian 16 at Thu Dec 10 16:13:25 2020.
