 Gaussian 16, Revision A.03,

 -----------------------------------------------------------
 # opt freq B3LYP/6-31G(d) empiricaldispersion=gd3bj scf=xqc
 -----------------------------------------------------------

 ------------------------------
 CID_11288381_JID_9842_neutraal
 ------------------------------
 Symbolic Z-matrix:
 Charge =  0 Multiplicity = 1

 SCF Done:  E(RB3LYP) =  -846.271691750     A.U. after   15 cycles
 SCF Done:  E(RB3LYP) =  -846.276238507     A.U. after   15 cycles
 SCF Done:  E(RB3LYP) =  -846.277325158     A.U. after   15 cycles
 SCF Done:  E(RB3LYP) =  -846.278905625     A.U. after   13 cycles
 SCF Done:  E(RB3LYP) =  -846.279685559     A.U. after   13 cycles
 SCF Done:  E(RB3LYP) =  -846.279991229     A.U. after   13 cycles
 SCF Done:  E(RB3LYP) =  -846.280689196     A.U. after   13 cycles
 SCF Done:  E(RB3LYP) =  -846.280922854     A.U. after   12 cycles
 SCF Done:  E(RB3LYP) =  -846.281040416     A.U. after   13 cycles
 SCF Done:  E(RB3LYP) =  -846.281087490     A.U. after   12 cycles
 SCF Done:  E(RB3LYP) =  -846.281124347     A.U. after    9 cycles
 SCF Done:  E(RB3LYP) =  -846.281126995     A.U. after    9 cycles
 SCF Done:  E(RB3LYP) =  -846.281127788     A.U. after    9 cycles
 SCF Done:  E(RB3LYP) =  -846.281127855     A.U. after    7 cycles
 SCF Done:  E(RB3LYP) =  -846.281127966     A.U. after    8 cycles
 SCF Done:  E(RB3LYP) =  -846.281127993     A.U. after    7 cycles
 Optimization completed.
    -- Stationary point found.
 Normal termination of Gaussian 16 at Mon Dec 14 13:30:01 2020.

 --------------------------------------------------------------------
 #N Geom=AllCheck Guess=TCheck SCRF=Check GenChk RB3LYP/6-31G(d) Freq
 --------------------------------------------------------------------

 Structure from the checkpoint file:  "JID_9842.chk"
 ------------------------------
 CID_11288381_JID_9842_neutraal
 ------------------------------
 Charge =  0 Multiplicity = 1

 SCF Done:  E(RB3LYP) =  -846.281127993     A.U. after    1 cycles

  Exact polarizability: 375.199  33.317 190.220  -0.553  -2.448  87.301
 Approx polarizability: 530.759  76.178 313.723  -6.861 -11.979 129.524

                      1                      2                      3
                      A                      A                      A
 Frequencies --     22.4910                27.8382                35.8130
 Red. masses --      3.9025                 3.7304                 3.8611
 Frc consts  --      0.0012                 0.0017                 0.0029
 IR Inten    --      0.2588                 0.1588                 3.1709

                      4                      5                      6
                      A                      A                      A
 Frequencies --     42.4019                48.7625                66.3635
 Red. masses --      5.1050                 4.6364                 5.0032
 Frc consts  --      0.0054                 0.0065                 0.0130
 IR Inten    --      0.2253                 0.9888                 1.4108

                      7                      8                      9
                      A                      A                      A
 Frequencies --    115.5095               121.1163               134.7160
 Red. masses --      4.6094                 3.1718                 3.9881
 Frc consts  --      0.0362                 0.0274                 0.0426
 IR Inten    --      0.1661                 0.6431                 1.8271

                     10                     11                     12
                      A                      A                      A
 Frequencies --    178.4369               184.7434               217.0974
 Red. masses --      2.2181                 1.3831                 4.5762
 Frc consts  --      0.0416                 0.0278                 0.1271
 IR Inten    --      1.4394                 0.3343                 3.0305

                     13                     14                     15
                      A                      A                      A
 Frequencies --    221.1779               235.4913               246.7736
 Red. masses --      2.3141                 1.1564                 1.0787
 Frc consts  --      0.0667                 0.0378                 0.0387
 IR Inten    --      1.8886                 0.1822                 0.0234

                     16                     17                     18
                      A                      A                      A
 Frequencies --    271.1871               294.6866               316.7397
 Red. masses --      4.0138                 4.2398                 4.7869
 Frc consts  --      0.1739                 0.2169                 0.2830
 IR Inten    --      1.6852                 0.6486                13.6670

                     19                     20                     21
                      A                      A                      A
 Frequencies --    369.2843               375.6579               398.7321
 Red. masses --      4.6353                 3.6643                 3.3846
 Frc consts  --      0.3724                 0.3047                 0.3170
 IR Inten    --      1.0158                 0.8403                 2.7393

                     22                     23                     24
                      A                      A                      A
 Frequencies --    406.4178               413.1161               432.4889
 Red. masses --      3.6598                 3.0187                 3.8251
 Frc consts  --      0.3562                 0.3035                 0.4215
 IR Inten    --      0.9922                 0.1405                 6.2994

                     25                     26                     27
                      A                      A                      A
 Frequencies --    493.5563               519.3880               531.7253
 Red. masses --      3.4209                 3.0193                 3.7178
 Frc consts  --      0.4910                 0.4799                 0.6193
 IR Inten    --      9.7865                 3.7639                 3.9209

                     28                     29                     30
                      A                      A                      A
 Frequencies --    538.7007               620.0001               634.2306
 Red. masses --      4.1499                 3.4235                 6.1800
 Frc consts  --      0.7096                 0.7754                 1.4647
 IR Inten    --     35.9319                 5.4291                 1.3302

                     31                     32                     33
                      A                      A                      A
 Frequencies --    639.7116               700.7094               722.1000
 Red. masses --      4.0868                 1.8594                 4.8188
 Frc consts  --      0.9854                 0.5379                 1.4804
 IR Inten    --     10.7245                19.6860                12.7309

                     34                     35                     36
                      A                      A                      A
 Frequencies --    765.1907               774.5987               800.3536
 Red. masses --      3.2711                 2.3147                 3.2928
 Frc consts  --      1.1285                 0.8183                 1.2427
 IR Inten    --     43.3626                 8.3699                 1.7235

                     37                     38                     39
                      A                      A                      A
 Frequencies --    827.8200               852.0891               872.6509
 Red. masses --      6.5358                 1.2742                 4.3047
 Frc consts  --      2.6389                 0.5451                 1.9314
 IR Inten    --      9.6070                 0.0418                 1.0718

                     40                     41                     42
                      A                      A                      A
 Frequencies --    900.5378               931.3192               938.6743
 Red. masses --      1.5272                 2.8497                 1.5857
 Frc consts  --      0.7297                 1.4563                 0.8232
 IR Inten    --      0.1094                 2.1691                 1.5416

                     43                     44                     45
                      A                      A                      A
 Frequencies --    947.6714               957.4881               969.1479
 Red. masses --      1.2012                 1.4079                 1.3581
 Frc consts  --      0.6356                 0.7605                 0.7515
 IR Inten    --      1.5801                 0.2542                 0.1526

                     46                     47                     48
                      A                      A                      A
 Frequencies --    976.3575               998.5650              1004.7397
 Red. masses --      1.6063                 1.2714                 1.8620
 Frc consts  --      0.9022                 0.7469                 1.1075
 IR Inten    --      2.9898                 0.5737                37.1218

                     49                     50                     51
                      A                      A                      A
 Frequencies --   1018.8654              1042.1240              1051.6130
 Red. masses --      5.9798                 1.3682                 2.0514
 Frc consts  --      3.6574                 0.8755                 1.3366
 IR Inten    --      3.2042                27.6931                59.5841

                     52                     53                     54
                      A                      A                      A
 Frequencies --   1059.7398              1066.0323              1116.5945
 Red. masses --      2.0496                 2.3263                 1.6326
 Frc consts  --      1.3562                 1.5576                 1.1993
 IR Inten    --      4.5486                59.0522                 3.3467

                     55                     56                     57
                      A                      A                      A
 Frequencies --   1171.6437              1179.3520              1195.5792
 Red. masses --      2.1503                 2.2035                 1.2206
 Frc consts  --      1.7392                 1.8057                 1.0279
 IR Inten    --      9.3061               286.9889                25.1526

                     58                     59                     60
                      A                      A                      A
 Frequencies --   1198.1278              1217.4114              1218.6133
 Red. masses --      2.4029                 1.1745                 1.8815
 Frc consts  --      2.0323                 1.0256                 1.6462
 IR Inten    --    159.3381                26.7779                 1.3101

                     61                     62                     63
                      A                      A                      A
 Frequencies --   1226.1427              1257.2309              1280.8494
 Red. masses --      3.0202                 1.8201                 2.4166
 Frc consts  --      2.6753                 1.6951                 2.3359
 IR Inten    --    148.0238               282.2051               213.4157

                     64                     65                     66
                      A                      A                      A
 Frequencies --   1313.6628              1345.4098              1372.4757
 Red. masses --      1.7860                 2.3421                 2.0177
 Frc consts  --      1.8159                 2.4978                 2.2394
 IR Inten    --    195.0578                90.2327                32.3369

                     67                     68                     69
                      A                      A                      A
 Frequencies --   1376.2243              1391.3077              1409.9667
 Red. masses --      1.9144                 1.3045                 1.3711
 Frc consts  --      2.1363                 1.4878                 1.6059
 IR Inten    --      2.2114                 2.9221                 4.3989

                     70                     71                     72
                      A                      A                      A
 Frequencies --   1420.9205              1426.8497              1427.6130
 Red. masses --      1.3771                 1.3859                 1.4355
 Frc consts  --      1.6382                 1.6624                 1.7237
 IR Inten    --     94.6143                22.6930                45.0568

                     73                     74                     75
                      A                      A                      A
 Frequencies --   1441.3730              1481.8327              1498.5916
 Red. masses --      1.2468                 1.0598                 2.2247
 Frc consts  --      1.5261                 1.3712                 2.9437
 IR Inten    --     35.0014                19.1516                10.2688

                     76                     77                     78
                      A                      A                      A
 Frequencies --   1500.7691              1509.8859              1521.0970
 Red. masses --      1.0753                 1.0474                 1.0504
 Frc consts  --      1.4270                 1.4069                 1.4319
 IR Inten    --      7.4551                 0.0648                36.8470

                     79                     80                     81
                      A                      A                      A
 Frequencies --   1530.5369              1545.5690              1549.9693
 Red. masses --      1.0490                 2.1862                 1.0550
 Frc consts  --      1.4478                 3.0770                 1.4933
 IR Inten    --      0.0261                 1.5316                11.0338

                     82                     83                     84
                      A                      A                      A
 Frequencies --   1610.7597              1633.5939              1658.7099
 Red. masses --      5.7514                 4.7244                 5.1982
 Frc consts  --      8.7919                 7.4282                 8.4264
 IR Inten    --    295.2769               117.4629                58.1091

                     85                     86                     87
                      A                      A                      A
 Frequencies --   1674.6739              1756.0185              1774.6352
 Red. masses --      4.9147                 9.8678                11.3266
 Frc consts  --      8.1210                17.9279                21.0169
 IR Inten    --    225.3845                87.4995               419.2437

                     88                     89                     90
                      A                      A                      A
 Frequencies --   3060.6701              3064.0124              3073.9471
 Red. masses --      1.0384                 1.0424                 1.0349
 Frc consts  --      5.7315                 5.7661                 5.7614
 IR Inten    --     22.2679                15.3974                 4.0862

                     91                     92                     93
                      A                      A                      A
 Frequencies --   3079.8459              3123.4106              3126.1351
 Red. masses --      1.0824                 1.1017                 1.1019
 Frc consts  --      6.0491                 6.3327                 6.3448
 IR Inten    --     30.7925                14.6020                49.0985

                     94                     95                     96
                      A                      A                      A
 Frequencies --   3143.3724              3143.6030              3168.9047
 Red. masses --      1.0986                 1.0884                 1.1060
 Frc consts  --      6.3959                 6.3370                 6.5438
 IR Inten    --      5.7390                14.8257                19.2112

                     97                     98                     99
                      A                      A                      A
 Frequencies --   3170.4843              3174.5665              3182.3720
 Red. masses --      1.1003                 1.0997                 1.0867
 Frc consts  --      6.5165                 6.5295                 6.4840
 IR Inten    --      1.3365                15.4812                 6.4503

                    100                    101                    102
                      A                      A                      A
 Frequencies --   3189.7901              3191.3916              3201.2016
 Red. masses --      1.0875                 1.0873                 1.0912
 Frc consts  --      6.5191                 6.5245                 6.5886
 IR Inten    --      2.6870                 0.4512                20.1827

                    103                    104                    105
                      A                      A                      A
 Frequencies --   3211.7374              3219.2143              3265.0115
 Red. masses --      1.0946                 1.0962                 1.0889
 Frc consts  --      6.6524                 6.6931                 6.8395
 IR Inten    --     35.2208                13.9071                13.9857

 - Thermochemistry -
 -------------------
 Temperature   298.150 Kelvin.  Pressure   1.00000 Atm.
 Atom     1 has atomic number  6 and mass  12.00000

 Molecular mass:   258.12559 amu.
 Principal axes and moments of inertia in atomic units:
                           1         2         3
     Eigenvalues --  2503.93433********************
           X            0.99997  -0.00725   0.00109
           Y            0.00724   0.99994   0.00854
           Z           -0.00116  -0.00853   0.99996
 This molecule is an asymmetric top.
 Rotational symmetry number  1.
 Warning -- assumption of classical behavior for rotation
           may cause significant error
 Rotational temperatures (Kelvin)      0.03459     0.00685     0.00588
 Rotational constants (GHZ):           0.72076     0.14264     0.12252
 Zero-point vibrational energy     803629.8 (Joules/Mol)
                                  192.07212 (Kcal/Mol)
 Warning -- explicit consideration of  29 degrees of freedom as
           vibrations may cause significant error
 Vibrational temperatures:     32.36    40.05    51.53    61.01    70.16
          (Kelvin)             95.48   166.19   174.26   193.83   256.73
                              265.80   312.35   318.23   338.82   355.05
                              390.18   423.99   455.72   531.32   540.49
                              573.69   584.74   594.38   622.26   710.12
                              747.28   765.03   775.07   892.04   912.52
                              920.40  1008.16  1038.94  1100.94  1114.47
                             1151.53  1191.05  1225.97  1255.55  1295.67
                             1339.96  1350.54  1363.49  1377.61  1394.39
                             1404.76  1436.71  1445.60  1465.92  1499.38
                             1513.04  1524.73  1533.78  1606.53  1685.73
                             1696.82  1720.17  1723.84  1751.58  1753.31
                             1764.15  1808.87  1842.86  1890.07  1935.74
                             1974.69  1980.08  2001.78  2028.63  2044.39
                             2052.92  2054.02  2073.81  2132.03  2156.14
                             2159.27  2172.39  2188.52  2202.10  2223.73
                             2230.06  2317.52  2350.38  2386.51  2409.48
                             2526.52  2553.30  4403.62  4408.43  4422.72
                             4431.21  4493.89  4497.81  4522.61  4522.94
                             4559.35  4561.62  4567.49  4578.72  4589.40
                             4591.70  4605.82  4620.97  4631.73  4697.62

 Zero-point correction=                           0.306086 (Hartree/Particle)
 Thermal correction to Energy=                    0.325282
 Thermal correction to Enthalpy=                  0.326227
 Thermal correction to Gibbs Free Energy=         0.255841
 Sum of electronic and zero-point Energies=           -845.975042
 Sum of electronic and thermal Energies=              -845.955846
 Sum of electronic and thermal Enthalpies=            -845.954901
 Sum of electronic and thermal Free Energies=         -846.025287

                     E (Thermal)             CV                S
                      KCal/Mol        Cal/Mol-Kelvin    Cal/Mol-Kelvin
 Total                  204.118             70.917            148.140
 Electronic               0.000              0.000              0.000
 Translational            0.889              2.981             42.545
 Rotational               0.889              2.981             34.500
 Vibrational            202.340             64.955             71.095
 Vibration     1          0.593              1.985              6.401
 Vibration     2          0.593              1.984              5.978
 Vibration     3          0.594              1.982              5.478
 Vibration     4          0.595              1.980              5.144
 Vibration     5          0.595              1.978              4.867
 Vibration     6          0.598              1.970              4.258
 Vibration     7          0.608              1.937              3.174
 Vibration     8          0.609              1.932              3.082
 Vibration     9          0.613              1.919              2.878
 Vibration    10          0.629              1.869              2.345
 Vibration    11          0.631              1.861              2.280
 Vibration    12          0.646              1.815              1.983
 Vibration    13          0.648              1.809              1.949
 Vibration    14          0.655              1.786              1.837
 Vibration    15          0.661              1.768              1.754
 Vibration    16          0.675              1.726              1.589
 Vibration    17          0.689              1.684              1.447
 Vibration    18          0.704              1.642              1.327
 Vibration    19          0.742              1.535              1.083
 Vibration    20          0.746              1.522              1.057
 Vibration    21          0.765              1.473              0.967
 Vibration    22          0.771              1.456              0.939
 Vibration    23          0.777              1.442              0.916
 Vibration    24          0.793              1.399              0.851
 Vibration    25          0.849              1.264              0.674
 Vibration    26          0.874              1.207              0.611
 Vibration    27          0.887              1.180              0.583
 Vibration    28          0.894              1.164              0.568
 Vibration    29          0.980              0.990              0.417

 Optimization completed.
    -- Stationary point found.
 Normal termination of Gaussian 16 at Mon Dec 14 13:45:41 2020.

 ----------------------------------------------------------------------
 # B3LYP/6-311++G(d,p) empiricaldispersion=gd3bj scf=xqc pop=npa geom=c
 heck
 ----------------------------------------------------------------------

 --------------------------------------
 CID_11288381_JID_9842_Energie_neutraal
 --------------------------------------
 Structure from the checkpoint file:  "JID_9842.chk"
 Charge =  0 Multiplicity = 1

 SCF Done:  E(RB3LYP) =  -846.513929821     A.U. after   16 cycles
 Normal termination of Gaussian 16 at Mon Dec 14 13:53:39 2020.

 ----------------------------------------------------------------------
 # B3LYP/6-311++G(d,p) empiricaldispersion=gd3bj scf=xqc pop=npa geom=c
 heck
 ----------------------------------------------------------------------

 ------------------------------------
 CID_11288381_JID_9842_Energie_kation
 ------------------------------------
 Structure from the checkpoint file:  "JID_9842.chk"
 Charge =  1 Multiplicity = 2

 SCF Done:  E(UB3LYP) =  -846.225383305     A.U. after   26 cycles
 Normal termination of Gaussian 16 at Mon Dec 14 14:12:22 2020.
 Gaussian 16:  ES64L-G16RevA.03 25-Dec-2016

 ----------------------------------------------------------------------
 # B3LYP/6-311++G(d,p) empiricaldispersion=gd3bj scf=xqc pop=npa geom=c
 heck
 ----------------------------------------------------------------------

 -----------------------------------
 CID_11288381_JID_9842_Energie_anion
 -----------------------------------
 Structure from the checkpoint file:  "JID_9842.chk"
 Charge = -1 Multiplicity = 2

                         Standard orientation:
 ---------------------------------------------------------------------
 Center     Atomic      Atomic             Coordinates (Angstroms)
 Number     Number       Type             X           Y           Z
 ---------------------------------------------------------------------
      1          6           0        4.490111   -1.998994   -1.252916
      2          6           0        3.974009   -1.903221    0.179479
      3          6           0        5.011428   -1.413092    1.184950
      4          8           0        2.741027   -1.126222    0.258602
      5          6           0        2.743631    0.181929   -0.087623
      6          8           0        3.749641    0.789071   -0.413650
      7          6           0        1.379709    0.780244   -0.042074
      8          6           0        0.300420   -0.062669   -0.023539
      9          6           0       -1.096148    0.262889   -0.024469
     10          6           0       -2.027982   -0.723706    0.007582
     11          6           0       -3.474810   -0.562878    0.016667
     12          6           0       -4.286101   -1.711954    0.063682
     13          6           0       -5.674224   -1.611028    0.075384
     14          6           0       -6.281152   -0.355047    0.039351
     15          6           0       -5.489491    0.797238   -0.008587
     16          6           0       -4.103892    0.697886   -0.019850
     17          6           0        1.237227    2.272737   -0.040656
     18          8           0        0.155605    2.802179   -0.273521
     19          6           0        2.429877    3.145254    0.298446
     20          1           0        4.880573   -1.040040   -1.596811
     21          1           0        3.688397   -2.318882   -1.926670
     22          1           0        5.291737   -2.744665   -1.299060
     23          1           0        3.620025   -2.890440    0.492728
     24          1           0        5.414650   -0.442428    0.892844
     25          1           0        4.564940   -1.328085    2.181041
     26          1           0        5.832259   -2.137088    1.239716
     27          1           0        0.529751   -1.124979    0.005588
     28          1           0       -1.371133    1.307981   -0.061188
     29          1           0       -1.676813   -1.756269    0.028674
     30          1           0       -3.813432   -2.690595    0.091384
     31          1           0       -6.281909   -2.510511    0.112153
     32          1           0       -7.364050   -0.271676    0.047921
     33          1           0       -5.958058    1.776691   -0.037788
     34          1           0       -3.502445    1.600085   -0.058653
     35          1           0        2.060430    4.154648    0.490305
     36          1           0        2.980212    2.766266    1.164899
     37          1           0        3.139019    3.156239   -0.533509
 ---------------------------------------------------------------------

 SCF Done:  E(UB3LYP) =  -846.564175459     A.U. after   24 cycles

 The electronic state is 2-A.
 Alpha  occ. eigenvalues --  -19.03909 -18.96924 -18.95382 -10.16321 -10.14045
 Alpha  occ. eigenvalues --  -10.10988 -10.07288 -10.07270 -10.06313 -10.06205
 Alpha  occ. eigenvalues --  -10.05900 -10.05646 -10.05527 -10.05114 -10.03520
 Alpha  occ. eigenvalues --  -10.03185 -10.03010 -10.02842 -10.02231  -0.97696
 Alpha  occ. eigenvalues --   -0.89087  -0.88695  -0.74287  -0.70290  -0.67743
 Alpha  occ. eigenvalues --   -0.65016  -0.63359  -0.61370  -0.60612  -0.59135
 Alpha  occ. eigenvalues --   -0.54367  -0.51429  -0.49349  -0.46930  -0.44180
 Alpha  occ. eigenvalues --   -0.42426  -0.40090  -0.39540  -0.37479  -0.36170
 Alpha  occ. eigenvalues --   -0.35696  -0.34890  -0.34558  -0.33288  -0.32119
 Alpha  occ. eigenvalues --   -0.31682  -0.31314  -0.30932  -0.30349  -0.29388
 Alpha  occ. eigenvalues --   -0.28705  -0.27711  -0.27379  -0.26346  -0.26217
 Alpha  occ. eigenvalues --   -0.26057  -0.24974  -0.24071  -0.23043  -0.22666
 Alpha  occ. eigenvalues --   -0.22214  -0.21483  -0.19582  -0.18677  -0.15429
 Alpha  occ. eigenvalues --   -0.14604  -0.14353  -0.10509  -0.09179   0.00265
 Alpha virt. eigenvalues --    0.06409   0.07453   0.08626   0.08883   0.09263
 Alpha virt. eigenvalues --    0.09518   0.09585   0.10383   0.10452   0.10673
 Alpha virt. eigenvalues --    0.11520   0.11854   0.12357   0.12430   0.13059

  Beta  occ. eigenvalues --  -19.03898 -18.96805 -18.95238 -10.16264 -10.14045
  Beta  occ. eigenvalues --  -10.10894 -10.07286 -10.07269 -10.06373 -10.06278
  Beta  occ. eigenvalues --  -10.05944 -10.05441 -10.05392 -10.04955 -10.03526
  Beta  occ. eigenvalues --  -10.02820 -10.02738 -10.02585 -10.02279  -0.97614
  Beta  occ. eigenvalues --   -0.88843  -0.88500  -0.74077  -0.70212  -0.67210
  Beta  occ. eigenvalues --   -0.64583  -0.63186  -0.61120  -0.60609  -0.58938
  Beta  occ. eigenvalues --   -0.54107  -0.50904  -0.49232  -0.46576  -0.43988
  Beta  occ. eigenvalues --   -0.42231  -0.39974  -0.39424  -0.37304  -0.35970
  Beta  occ. eigenvalues --   -0.35570  -0.34779  -0.34438  -0.33191  -0.32034
  Beta  occ. eigenvalues --   -0.31596  -0.31168  -0.30877  -0.30120  -0.29222
  Beta  occ. eigenvalues --   -0.28585  -0.27571  -0.27222  -0.26162  -0.25977
  Beta  occ. eigenvalues --   -0.25627  -0.24843  -0.23969  -0.22936  -0.22243
  Beta  occ. eigenvalues --   -0.21744  -0.21313  -0.18348  -0.18160  -0.14457
  Beta  occ. eigenvalues --   -0.14125  -0.13772  -0.10354  -0.07764
  Beta virt. eigenvalues --    0.05753   0.06404   0.07441   0.08637   0.08876
  Beta virt. eigenvalues --    0.09255   0.09533   0.09923   0.10376   0.10649
  Beta virt. eigenvalues --    0.11497   0.11763   0.12251   0.12428   0.12831

 Mulliken charges and spin densities:
               1          2
     1  C   -0.400181  -0.000368
     2  C    0.036128  -0.001090
     3  C   -0.441577  -0.001136
     4  O    0.058441  -0.001156
     5  C   -1.847391   0.024180
     6  O   -0.249359   0.042813
     7  C    1.774892   0.046016
     8  C    0.178741   0.311473
     9  C    0.135710  -0.042055
    10  C   -0.150553   0.280826
    11  C    1.394301  -0.048368
    12  C   -0.024261   0.123084
    13  C   -0.270433  -0.040283
    14  C   -0.554324   0.163468
    15  C   -0.116506  -0.051257
    16  C   -1.442187   0.123654
    17  C   -0.608339   0.074179
    18  O   -0.308320   0.054887
    19  C   -0.531457  -0.003482
    20  H    0.184173   0.000584
    21  H    0.126254   0.000532
    22  H    0.130159   0.000353
    23  H    0.154467   0.000049
    24  H    0.185924   0.000830
    25  H    0.131496   0.000096
    26  H    0.122340   0.000826
    27  H    0.180605  -0.020046
    28  H    0.091024  -0.003905
    29  H    0.023833  -0.023866
    30  H    0.124262  -0.004695
    31  H    0.127794   0.002424
    32  H    0.104647  -0.012093
    33  H    0.158027   0.003566
    34  H    0.079133  -0.006477
    35  H    0.134027  -0.000230
    36  H    0.137848   0.001389
    37  H    0.170662   0.005278
 Sum of Mulliken charges =  -1.00000   1.00000

 Dipole moment (field-independent basis, Debye):
    X=              3.2593    Y=             -4.6734    Z=              0.9265  Tot=              5.7725
 Quadrupole moment (field-independent basis, Debye-Ang):
   XX=           -171.7776   YY=           -130.8001   ZZ=           -124.4644
   XY=            -10.3015   XZ=              2.4376   YZ=              2.2999

 Summary of Natural Population Analysis:

                                       Natural Population
                Natural  -----------------------------------------------
    Atom  No    Charge         Core      Valence    Rydberg      Total
 -----------------------------------------------------------------------
      C    1   -0.30109      0.99964     2.29692    0.00453     3.30109
      C    2    0.06664      0.99957     1.92233    0.01146     2.93336
      C    3   -0.30068      0.99964     2.29638    0.00466     3.30068
      O    4   -0.29427      0.99986     3.28426    0.01015     4.29427
      C    5    0.40378      0.99963     1.57194    0.02465     2.59622
      O    6   -0.32548      0.99987     3.31957    0.00604     4.32548
      C    7   -0.13170      0.99941     2.12162    0.01067     3.13170
      C    8    0.04485      0.99944     1.94688    0.00883     2.95515
      C    9   -0.12306      0.99942     2.11541    0.00824     3.12306
      C   10    0.01666      0.99955     1.97415    0.00964     2.98334
      C   11   -0.04991      0.99952     2.04108    0.00930     3.04991
      C   12   -0.05538      0.99943     2.04750    0.00844     3.05538
      C   13   -0.13032      0.99959     2.12098    0.00974     3.13032
      C   14   -0.06961      0.99958     2.06054    0.00949     3.06961
      C   15   -0.12492      0.99958     2.11611    0.00923     3.12492
      C   16   -0.05348      0.99953     2.04613    0.00782     3.05348
      C   17    0.28903      0.99965     1.69134    0.01997     2.71097
      O   18   -0.30018      0.99988     3.29210    0.00820     4.30018
      C   19   -0.32838      0.99963     2.32416    0.00459     3.32838
      H   20    0.11291      0.00000     0.38602    0.00107     0.38709
      H   21    0.10229      0.00000     0.39679    0.00091     0.39771
      H   22    0.09328      0.00000     0.40583    0.00088     0.40672
      H   23    0.08507      0.00000     0.41370    0.00123     0.41493
      H   24    0.11304      0.00000     0.38583    0.00112     0.38696
      H   25    0.10150      0.00000     0.39757    0.00092     0.39850
      H   26    0.09287      0.00000     0.40625    0.00088     0.40713
      H   27    0.09092      0.00000     0.40724    0.00185     0.40908
      H   28    0.11167      0.00000     0.38615    0.00218     0.38833
      H   29    0.07892      0.00000     0.41915    0.00194     0.42108
      H   30    0.09185      0.00000     0.40649    0.00166     0.40815
      H   31    0.09288      0.00000     0.40603    0.00109     0.40712
      H   32    0.08981      0.00000     0.40915    0.00104     0.41019
      H   33    0.09415      0.00000     0.40485    0.00100     0.40585
      H   34    0.10084      0.00000     0.39785    0.00131     0.39916
      H   35    0.09738      0.00000     0.40102    0.00160     0.40262
      H   36    0.10279      0.00000     0.39616    0.00105     0.39721
      H   37    0.11533      0.00000     0.38362    0.00105     0.38467
 =======================================================================
   * Total *    0.00001     18.99244    49.79911    0.20844    68.99999

 Normal termination of Gaussian 16 at Mon Dec 14 14:29:29 2020.
