 Gaussian 16, Revision A.03,

 -----------------------------------------------------------
 # opt freq B3LYP/6-31G(d) empiricaldispersion=gd3bj scf=xqc
 -----------------------------------------------------------

 ------------------------------
 CID_130670342_JID_768_neutraal
 ------------------------------
 Symbolic Z-matrix:
 Charge =  0 Multiplicity = 1

 SCF Done:  E(RB3LYP) =  -497.225423475     A.U. after   15 cycles
 SCF Done:  E(RB3LYP) =  -497.227896840     A.U. after   14 cycles
 SCF Done:  E(RB3LYP) =  -497.227378328     A.U. after   14 cycles
 SCF Done:  E(RB3LYP) =  -497.228527266     A.U. after   13 cycles
 SCF Done:  E(RB3LYP) =  -497.228794479     A.U. after   13 cycles
 SCF Done:  E(RB3LYP) =  -497.228863626     A.U. after   12 cycles
 SCF Done:  E(RB3LYP) =  -497.228916174     A.U. after   12 cycles
 SCF Done:  E(RB3LYP) =  -497.228922421     A.U. after   10 cycles
 SCF Done:  E(RB3LYP) =  -497.228927627     A.U. after   11 cycles
 SCF Done:  E(RB3LYP) =  -497.228928897     A.U. after   10 cycles
 SCF Done:  E(RB3LYP) =  -497.228930293     A.U. after   11 cycles
 SCF Done:  E(RB3LYP) =  -497.228932333     A.U. after   10 cycles
 SCF Done:  E(RB3LYP) =  -497.228934523     A.U. after   11 cycles
 SCF Done:  E(RB3LYP) =  -497.228936198     A.U. after   10 cycles
 SCF Done:  E(RB3LYP) =  -497.228936769     A.U. after   10 cycles
 Optimization completed.
    -- Stationary point found.
 Normal termination of Gaussian 16 at Tue Dec  8 13:09:07 2020.

 --------------------------------------------------------------------
 #N Geom=AllCheck Guess=TCheck SCRF=Check GenChk RB3LYP/6-31G(d) Freq
 --------------------------------------------------------------------

 Structure from the checkpoint file:  "JID_768.chk"
 ------------------------------
 CID_130670342_JID_768_neutraal
 ------------------------------
 Charge =  0 Multiplicity = 1

 SCF Done:  E(RB3LYP) =  -497.228936769     A.U. after    1 cycles

  Exact polarizability: 102.882  -4.070  75.578  -4.425  -0.524  56.880
 Approx polarizability: 145.657 -12.379 114.087  -5.339  -2.397  88.040

                      1                      2                      3
                      A                      A                      A
 Frequencies --     28.3374                57.1533               127.8026
 Red. masses --      4.6988                 4.9917                 3.8883
 Frc consts  --      0.0022                 0.0096                 0.0374
 IR Inten    --      0.3632                 0.9655                 1.7662

                      4                      5                      6
                      A                      A                      A
 Frequencies --    139.0105               244.9129               278.4398
 Red. masses --      1.1137                 2.9384                 2.3898
 Frc consts  --      0.0127                 0.1038                 0.1092
 IR Inten    --      0.6365                 2.0173                 1.8701

                      7                      8                      9
                      A                      A                      A
 Frequencies --    347.8922               367.7931               397.9434
 Red. masses --      5.7910                 4.3583                 3.0125
 Frc consts  --      0.4129                 0.3474                 0.2811
 IR Inten    --      2.5902                 4.1360                 6.0291

                     10                     11                     12
                      A                      A                      A
 Frequencies --    441.0700               484.4588               521.2324
 Red. masses --      5.2314                 5.3028                 4.1568
 Frc consts  --      0.5996                 0.7333                 0.6654
 IR Inten    --     11.4099                 0.8552                 1.7563

                     13                     14                     15
                      A                      A                      A
 Frequencies --    578.8424               635.5118               692.6391
 Red. masses --      5.3190                 5.9824                 3.9871
 Frc consts  --      1.0500                 1.4236                 1.1270
 IR Inten    --     12.0932                 1.0663                 3.9630

                     16                     17                     18
                      A                      A                      A
 Frequencies --    760.2159               847.5510               897.6445
 Red. masses --      3.5501                 1.3569                 3.1108
 Frc consts  --      1.2088                 0.5743                 1.4769
 IR Inten    --     11.1647                20.6655                 6.6160

                     19                     20                     21
                      A                      A                      A
 Frequencies --    951.9630               979.3185              1023.8400
 Red. masses --      1.8702                 2.0500                 4.8388
 Frc consts  --      0.9986                 1.1584                 2.9885
 IR Inten    --      2.8716                21.5360                74.0266

                     22                     23                     24
                      A                      A                      A
 Frequencies --   1051.5555              1075.9945              1104.0712
 Red. masses --      1.8677                 1.5394                 2.4738
 Frc consts  --      1.2168                 1.0501                 1.7767
 IR Inten    --      8.1229                 0.7629                28.5868

                     25                     26                     27
                      A                      A                      A
 Frequencies --   1136.5682              1183.4500              1243.1913
 Red. masses --      4.1032                 1.6705                 2.6769
 Frc consts  --      3.1229                 1.3784                 2.4375
 IR Inten    --     40.4136               106.6289               179.2453

                     28                     29                     30
                      A                      A                      A
 Frequencies --   1265.1973              1275.4604              1309.1669
 Red. masses --      1.6765                 1.3985                 1.4588
 Frc consts  --      1.5812                 1.3404                 1.4731
 IR Inten    --     33.2550                 4.1272                22.3184

                     31                     32                     33
                      A                      A                      A
 Frequencies --   1406.5233              1432.7917              1446.6365
 Red. masses --      1.5420                 1.3929                 1.2994
 Frc consts  --      1.7974                 1.6848                 1.6022
 IR Inten    --      8.6727                17.8415                 1.6475

                     34                     35                     36
                      A                      A                      A
 Frequencies --   1478.1527              1510.1829              1520.2629
 Red. masses --      1.1131                 1.0442                 1.0652
 Frc consts  --      1.4330                 1.4031                 1.4505
 IR Inten    --     10.8924                 6.8478                 8.5225

                     37                     38                     39
                      A                      A                      A
 Frequencies --   1534.2049              1769.2717              1837.6752
 Red. masses --      1.0994                 6.9719                12.8147
 Frc consts  --      1.5246                12.8586                25.4974
 IR Inten    --      3.7722                 6.8939               325.5552

                     40                     41                     42
                      A                      A                      A
 Frequencies --   1854.1803              2999.3595              3037.2942
 Red. masses --     12.8245                 1.0717                 1.0699
 Frc consts  --     25.9774                 5.6804                 5.8152
 IR Inten    --     99.4088                11.7269                43.0995

                     43                     44                     45
                      A                      A                      A
 Frequencies --   3044.6085              3090.7043              3135.5930
 Red. masses --      1.0398                 1.0999                 1.0947
 Frc consts  --      5.6790                 6.1904                 6.3416
 IR Inten    --     19.2652                14.9822                 4.9467

                     46                     47                     48
                      A                      A                      A
 Frequencies --   3139.4438              3146.9694              3156.1579
 Red. masses --      1.0964                 1.0889                 1.0922
 Frc consts  --      6.3666                 6.3535                 6.4099
 IR Inten    --      7.9666                 2.2551                41.6324

 - Thermochemistry -
 -------------------
 Temperature   298.150 Kelvin.  Pressure   1.00000 Atm.
 Atom     1 has atomic number  6 and mass  12.00000

 Molecular mass:   140.04734 amu.
 Principal axes and moments of inertia in atomic units:
                           1         2         3
     Eigenvalues --   796.632071822.441922352.47308
           X            0.99971   0.01785  -0.01587
           Y           -0.01797   0.99981  -0.00762
           Z            0.01573   0.00790   0.99985
 This molecule is an asymmetric top.
 Rotational symmetry number  1.
 Warning -- assumption of classical behavior for rotation
           may cause significant error
 Rotational temperatures (Kelvin)      0.10873     0.04753     0.03682
 Rotational constants (GHZ):           2.26546     0.99029     0.76717
 Zero-point vibrational energy     370772.0 (Joules/Mol)
                                   88.61664 (Kcal/Mol)
 Warning -- explicit consideration of  13 degrees of freedom as
           vibrations may cause significant error
 Vibrational temperatures:     40.77    82.23   183.88   200.01   352.38
          (Kelvin)            400.61   500.54   529.17   572.55   634.60
                              697.03   749.94   832.83   914.36   996.55
                             1093.78  1219.44  1291.51  1369.66  1409.02
                             1473.08  1512.95  1548.12  1588.51  1635.27
                             1702.72  1788.67  1820.34  1835.10  1883.60
                             2023.67  2061.47  2081.39  2126.73  2172.82
                             2187.32  2207.38  2545.59  2644.00  2667.75
                             4315.41  4369.99  4380.51  4446.83  4511.42
                             4516.96  4527.79  4541.01

 Zero-point correction=                           0.141220 (Hartree/Particle)
 Thermal correction to Energy=                    0.150745
 Thermal correction to Enthalpy=                  0.151690
 Thermal correction to Gibbs Free Energy=         0.105184
 Sum of electronic and zero-point Energies=           -497.087717
 Sum of electronic and thermal Energies=              -497.078191
 Sum of electronic and thermal Enthalpies=            -497.077247
 Sum of electronic and thermal Free Energies=         -497.123753

                     E (Thermal)             CV                S
                      KCal/Mol        Cal/Mol-Kelvin    Cal/Mol-Kelvin
 Total                   94.594             34.232             97.880
 Electronic               0.000              0.000              0.000
 Translational            0.889              2.981             40.722
 Rotational               0.889              2.981             29.614
 Vibrational             92.817             28.270             27.544
 Vibration     1          0.593              1.984              5.943
 Vibration     2          0.596              1.975              4.553
 Vibration     3          0.611              1.925              2.979
 Vibration     4          0.615              1.914              2.817
 Vibration     5          0.660              1.771              1.767
 Vibration     6          0.679              1.713              1.543
 Vibration     7          0.726              1.580              1.176
 Vibration     8          0.740              1.538              1.089
 Vibration     9          0.764              1.475              0.970
 Vibration    10          0.801              1.381              0.823
 Vibration    11          0.841              1.285              0.698
 Vibration    12          0.876              1.203              0.607
 Vibration    13          0.935              1.077              0.488

                           ! Non-Optimized Parameters !
 Normal termination of Gaussian 16 at Tue Dec  8 13:17:02 2020.

 ----------------------------------------------------------------------
 # B3LYP/6-311++G(d,p) empiricaldispersion=gd3bj scf=xqc pop=npa geom=c
 heck
 ----------------------------------------------------------------------

 --------------------------------------
 CID_130670342_JID_768_Energie_neutraal
 --------------------------------------
 Structure from the checkpoint file:  "JID_768.chk"
 Charge =  0 Multiplicity = 1

 SCF Done:  E(RB3LYP) =  -497.375164401     A.U. after   15 cycles
 Normal termination of Gaussian 16 at Tue Dec  8 13:23:57 2020.

 ----------------------------------------------------------------------
 # B3LYP/6-311++G(d,p) empiricaldispersion=gd3bj scf=xqc pop=npa geom=c
 heck
 ----------------------------------------------------------------------

 ------------------------------------
 CID_130670342_JID_768_Energie_kation
 ------------------------------------
 Structure from the checkpoint file:  "JID_768.chk"
 Charge =  1 Multiplicity = 2

 SCF Done:  E(UB3LYP) =  -497.034057392     A.U. after   22 cycles
 Normal termination of Gaussian 16 at Tue Dec  8 13:27:46 2020.
 Gaussian 16:  ES64L-G16RevA.03 25-Dec-2016

 ----------------------------------------------------------------------
 # B3LYP/6-311++G(d,p) empiricaldispersion=gd3bj scf=xqc pop=npa geom=c
 heck
 ----------------------------------------------------------------------

 -----------------------------------
 CID_130670342_JID_768_Energie_anion
 -----------------------------------
 Structure from the checkpoint file:  "JID_768.chk"
 Charge = -1 Multiplicity = 2

                         Standard orientation:
 ---------------------------------------------------------------------
 Center     Atomic      Atomic             Coordinates (Angstroms)
 Number     Number       Type             X           Y           Z
 ---------------------------------------------------------------------
      1          6           0        3.232213    0.640126   -0.579145
      2          6           0        2.270576   -0.477645   -0.311726
      3          6           0        1.091006   -0.408584    0.316839
      4          6           0        0.426508    0.831420    0.847392
      5          6           0       -0.940901    0.991375    0.200378
      6          8           0       -1.463432    2.061342    0.005359
      7          6           0       -1.698112   -0.300700   -0.231116
      8          8           0       -2.802767   -0.240094   -0.703202
      9          8           0       -1.081611   -1.495307   -0.078893
     10          6           0        0.236065   -1.621299    0.519964
     11          1           0        2.878288    1.606542   -0.212197
     12          1           0        3.419208    0.734646   -1.656386
     13          1           0        4.202439    0.434606   -0.108652
     14          1           0        2.587908   -1.458229   -0.667860
     15          1           0        0.251726    0.724952    1.931531
     16          1           0        0.989614    1.754535    0.699938
     17          1           0        0.669379   -2.512637    0.062864
     18          1           0        0.079793   -1.820102    1.589134
 ---------------------------------------------------------------------

 SCF Done:  E(UB3LYP) =  -497.396351522     A.U. after   30 cycles

 The electronic state is 2-A.
 Alpha  occ. eigenvalues --  -18.99475 -18.91072 -18.90252 -10.10192 -10.09570
 Alpha  occ. eigenvalues --  -10.06363 -10.05588 -10.05168 -10.04388 -10.03099
 Alpha  occ. eigenvalues --   -0.92684  -0.85297  -0.83392  -0.69793  -0.62728
 Alpha  occ. eigenvalues --   -0.58856  -0.53365  -0.45858  -0.42143  -0.38395
 Alpha  occ. eigenvalues --   -0.35324  -0.35050  -0.31256  -0.30228  -0.29663
 Alpha  occ. eigenvalues --   -0.28309  -0.27276  -0.25379  -0.24973  -0.24177
 Alpha  occ. eigenvalues --   -0.23260  -0.18574  -0.18414  -0.13902  -0.13431
 Alpha  occ. eigenvalues --   -0.10199  -0.05921   0.05184
 Alpha virt. eigenvalues --    0.07721   0.09437   0.10251   0.11201   0.12416
 Alpha virt. eigenvalues --    0.12667   0.13024   0.14674   0.16033   0.16394
 Alpha virt. eigenvalues --    0.16672   0.17477   0.19205   0.19665   0.19870

  Beta  occ. eigenvalues --  -18.99355 -18.90704 -18.89517 -10.10193 -10.09373
  Beta  occ. eigenvalues --  -10.06364 -10.05568 -10.05117 -10.03970 -10.03149
  Beta  occ. eigenvalues --   -0.92337  -0.84304  -0.82517  -0.69687  -0.62632
  Beta  occ. eigenvalues --   -0.58505  -0.53270  -0.44922  -0.41687  -0.38164
  Beta  occ. eigenvalues --   -0.35167  -0.34838  -0.31167  -0.29728  -0.29109
  Beta  occ. eigenvalues --   -0.28138  -0.26834  -0.24930  -0.24095  -0.23788
  Beta  occ. eigenvalues --   -0.22441  -0.18328  -0.15287  -0.13401  -0.12006
  Beta  occ. eigenvalues --   -0.09740  -0.05278
  Beta virt. eigenvalues --    0.07665   0.09337   0.10163   0.11142   0.12302
  Beta virt. eigenvalues --    0.12625   0.12960   0.14032   0.14710   0.16022
  Beta virt. eigenvalues --    0.16475   0.16647   0.17455   0.19234   0.19652

 Mulliken charges and spin densities:
               1          2
     1  C   -0.670344   0.017392
     2  C   -0.803302   0.182955
     3  C    0.897267   0.259277
     4  C    0.114676  -0.310448
     5  C   -0.254563   0.311191
     6  O   -0.415720   0.260724
     7  C   -0.011126   0.155023
     8  O   -0.402271   0.125396
     9  O   -0.120239   0.028213
    10  C   -0.273292  -0.162383
    11  H    0.116755   0.002251
    12  H    0.130754   0.000520
    13  H    0.112537   0.004282
    14  H    0.102601  -0.003273
    15  H   -0.005020   0.144852
    16  H    0.179117  -0.029357
    17  H    0.191108  -0.007326
    18  H    0.111064   0.020712
 Sum of Mulliken charges =  -1.00000   1.00000

 Dipole moment (field-independent basis, Debye):
    X=              8.6696    Y=             -3.1637    Z=              1.6245  Tot=              9.3707
 Quadrupole moment (field-independent basis, Debye-Ang):
   XX=            -91.3419   YY=            -76.7901   ZZ=            -65.8424
   XY=              3.9663   XZ=             -6.5991   YZ=             -1.3344

 Summary of Natural Population Analysis:

                                       Natural Population
                Natural  -----------------------------------------------
    Atom  No    Charge         Core      Valence    Rydberg      Total
 -----------------------------------------------------------------------
      C    1   -0.29819      0.99966     2.29363    0.00491     3.29819
      C    2   -0.09320      0.99946     2.08536    0.00838     3.09320
      C    3   -0.01444      0.99948     2.00208    0.01288     3.01444
      C    4   -0.25079      0.99957     2.23976    0.01146     3.25079
      C    5    0.28275      0.99966     1.69484    0.02275     2.71725
      O    6   -0.20584      0.99987     3.19840    0.00757     4.20584
      C    7    0.38722      0.99967     1.58414    0.02897     2.61278
      O    8   -0.26689      0.99986     3.25960    0.00742     4.26689
      O    9   -0.28447      0.99986     3.27351    0.01110     4.28447
      C   10   -0.01409      0.99951     2.00347    0.01110     3.01409
      H   11    0.10276      0.00000     0.39629    0.00095     0.39724
      H   12    0.09761      0.00000     0.40130    0.00109     0.40239
      H   13    0.09431      0.00000     0.40447    0.00122     0.40569
      H   14    0.08385      0.00000     0.41473    0.00142     0.41615
      H   15    0.10937      0.00000     0.38768    0.00295     0.39063
      H   16    0.10266      0.00000     0.39428    0.00306     0.39734
      H   17    0.08604      0.00000     0.41242    0.00154     0.41396
      H   18    0.08134      0.00000     0.41705    0.00161     0.41866
 =======================================================================
   * Total *    0.00000      9.99660    26.86301    0.14039    37.00000

 Normal termination of Gaussian 16 at Tue Dec  8 13:35:49 2020.
