 Gaussian 16, Revision A.03,

 -----------------------------------------------------------
 # opt freq B3LYP/6-31G(d) empiricaldispersion=gd3bj scf=xqc
 -----------------------------------------------------------

 ------------------------------
 CID_66219160_JID_2991_neutraal
 ------------------------------
 Symbolic Z-matrix:
 Charge =  0 Multiplicity = 1

 SCF Done:  E(RB3LYP) =  -914.650695806     A.U. after   14 cycles
 SCF Done:  E(RB3LYP) =  -914.652781982     A.U. after   13 cycles
 SCF Done:  E(RB3LYP) =  -914.654115256     A.U. after   13 cycles
 SCF Done:  E(RB3LYP) =  -914.657752179     A.U. after   12 cycles
 SCF Done:  E(RB3LYP) =  -914.657648587     A.U. after   13 cycles
 SCF Done:  E(RB3LYP) =  -914.659236903     A.U. after   11 cycles
 SCF Done:  E(RB3LYP) =  -914.660628664     A.U. after   13 cycles
 SCF Done:  E(RB3LYP) =  -914.661867689     A.U. after   12 cycles
 SCF Done:  E(RB3LYP) =  -914.662392406     A.U. after   11 cycles
 SCF Done:  E(RB3LYP) =  -914.662864813     A.U. after   11 cycles
 SCF Done:  E(RB3LYP) =  -914.663738196     A.U. after   10 cycles
 SCF Done:  E(RB3LYP) =  -914.663743656     A.U. after    8 cycles
 SCF Done:  E(RB3LYP) =  -914.663746756     A.U. after   10 cycles
 SCF Done:  E(RB3LYP) =  -914.663748468     A.U. after    8 cycles
 SCF Done:  E(RB3LYP) =  -914.663748507     A.U. after    7 cycles
 SCF Done:  E(RB3LYP) =  -914.663748585     A.U. after    7 cycles
 Optimization completed.
    -- Stationary point found.
 Normal termination of Gaussian 16 at Wed Dec  9 18:27:17 2020.

 --------------------------------------------------------------------
 #N Geom=AllCheck Guess=TCheck SCRF=Check GenChk RB3LYP/6-31G(d) Freq
 --------------------------------------------------------------------

 Structure from the checkpoint file:  "JID_2991.chk"
 ------------------------------
 CID_66219160_JID_2991_neutraal
 ------------------------------
 Charge =  0 Multiplicity = 1

 SCF Done:  E(RB3LYP) =  -914.663748585     A.U. after    1 cycles

  Exact polarizability: 132.637  -6.386 110.220  -3.931  -0.745  97.994
 Approx polarizability: 166.311 -18.416 172.185  -6.948   1.362 149.071

                      1                      2                      3
                      A                      A                      A
 Frequencies --     18.4376                41.0920                51.6062
 Red. masses --      4.7849                 3.2373                 4.8605
 Frc consts  --      0.0010                 0.0032                 0.0076
 IR Inten    --      0.8735                 0.6885                 2.8537

                      4                      5                      6
                      A                      A                      A
 Frequencies --     78.6861                99.0981               150.5107
 Red. masses --      4.4525                 4.0483                 3.2008
 Frc consts  --      0.0162                 0.0234                 0.0427
 IR Inten    --      1.0343                 3.6217                 0.2568

                      7                      8                      9
                      A                      A                      A
 Frequencies --    166.1170               217.6605               224.4851
 Red. masses --      3.5698                 3.0121                 1.8211
 Frc consts  --      0.0580                 0.0841                 0.0541
 IR Inten    --      6.0744                 2.0235                 1.0178

                     10                     11                     12
                      A                      A                      A
 Frequencies --    238.8992               254.5484               264.1510
 Red. masses --      2.9216                 1.7995                 1.4274
 Frc consts  --      0.0982                 0.0687                 0.0587
 IR Inten    --      3.5946                35.4794                30.1483

                     13                     14                     15
                      A                      A                      A
 Frequencies --    283.0317               304.8691               334.4138
 Red. masses --      1.0816                 1.5964                 1.6111
 Frc consts  --      0.0510                 0.0874                 0.1062
 IR Inten    --      0.3819                 2.6986                59.8513

                     16                     17                     18
                      A                      A                      A
 Frequencies --    341.5384               375.6793               405.4038
 Red. masses --      1.7808                 3.0176                 2.0282
 Frc consts  --      0.1224                 0.2509                 0.1964
 IR Inten    --     34.6527                12.3911                 3.0197

                     19                     20                     21
                      A                      A                      A
 Frequencies --    449.9312               461.5178               523.6552
 Red. masses --      2.3285                 4.7748                 4.3440
 Frc consts  --      0.2777                 0.5992                 0.7018
 IR Inten    --      3.6490                 6.1741                 9.0086

                     22                     23                     24
                      A                      A                      A
 Frequencies --    590.3430               657.0904               687.5904
 Red. masses --      2.2510                 4.3097                 2.5770
 Frc consts  --      0.4622                 1.0964                 0.7178
 IR Inten    --     31.6618                11.0667                29.3528

                     25                     26                     27
                      A                      A                      A
 Frequencies --    739.4422               751.2395               774.0486
 Red. masses --      2.4826                 3.5299                 2.5531
 Frc consts  --      0.7998                 1.1737                 0.9013
 IR Inten    --     37.0561                15.5158                 8.7673

                     28                     29                     30
                      A                      A                      A
 Frequencies --    821.9276               861.7387               896.2668
 Red. masses --      2.4603                 1.9796                 1.8724
 Frc consts  --      0.9793                 0.8661                 0.8862
 IR Inten    --      8.4753                 8.2693                33.4477

                     31                     32                     33
                      A                      A                      A
 Frequencies --    914.6778               924.1434               936.8176
 Red. masses --      1.4409                 1.8011                 1.6993
 Frc consts  --      0.7103                 0.9063                 0.8787
 IR Inten    --    123.4555                59.3376                99.6880

                     34                     35                     36
                      A                      A                      A
 Frequencies --    963.4224              1039.0981              1049.6005
 Red. masses --      1.6435                 1.3956                 1.5782
 Frc consts  --      0.8988                 0.8878                 1.0244
 IR Inten    --      1.6464                 1.8647                 7.8588

                     37                     38                     39
                      A                      A                      A
 Frequencies --   1077.8416              1110.5363              1134.8062
 Red. masses --      1.7338                 1.7265                 2.2116
 Frc consts  --      1.1868                 1.2545                 1.6781
 IR Inten    --     10.9979                26.1857                 1.1873

                     40                     41                     42
                      A                      A                      A
 Frequencies --   1172.2150              1179.8497              1191.4295
 Red. masses --      1.4575                 2.1380                 1.8141
 Frc consts  --      1.1800                 1.7535                 1.5172
 IR Inten    --      9.4165                21.2170                15.6516

                     43                     44                     45
                      A                      A                      A
 Frequencies --   1244.5215              1272.2160              1301.3734
 Red. masses --      1.3123                 1.3004                 1.2832
 Frc consts  --      1.1975                 1.2401                 1.2804
 IR Inten    --      2.1792                 0.6262                 3.3073

                     46                     47                     48
                      A                      A                      A
 Frequencies --   1319.0822              1346.7268              1357.5808
 Red. masses --      1.3942                 1.1701                 1.3149
 Frc consts  --      1.4293                 1.2503                 1.4278
 IR Inten    --      3.3142                 2.8034                15.5109

                     49                     50                     51
                      A                      A                      A
 Frequencies --   1382.7538              1387.7121              1405.1345
 Red. masses --      1.3332                 1.3049                 2.4059
 Frc consts  --      1.5018                 1.4806                 2.7988
 IR Inten    --      7.0565                 5.2339                69.1780

                     52                     53                     54
                      A                      A                      A
 Frequencies --   1420.5897              1429.7775              1440.5203
 Red. masses --      1.3483                 1.2616                 1.2927
 Frc consts  --      1.6031                 1.5195                 1.5805
 IR Inten    --     11.7660                10.1835                12.3645

                     55                     56                     57
                      A                      A                      A
 Frequencies --   1480.7992              1490.2890              1494.2355
 Red. masses --      1.1000                 1.7034                 1.0823
 Frc consts  --      1.4212                 2.2289                 1.4238
 IR Inten    --      7.6774                16.9666                 1.9727

                     58                     59                     60
                      A                      A                      A
 Frequencies --   1516.0455              1522.0432              1535.6697
 Red. masses --      1.0544                 1.0602                 1.0515
 Frc consts  --      1.4279                 1.4471                 1.4611
 IR Inten    --      3.5830                 3.8805                11.4242

                     61                     62                     63
                      A                      A                      A
 Frequencies --   1546.4748              1695.7055              1703.4424
 Red. masses --      1.0550                 1.0898                 1.1538
 Frc consts  --      1.4865                 1.8464                 1.9726
 IR Inten    --     16.9538                22.3476                49.5452

                     64                     65                     66
                      A                      A                      A
 Frequencies --   1775.3285              3033.0697              3042.0185
 Red. masses --      6.2481                 1.0407                 1.0737
 Frc consts  --     11.6026                 5.6408                 5.8541
 IR Inten    --    236.0557                13.7025                14.9822

                     67                     68                     69
                      A                      A                      A
 Frequencies --   3050.3845              3053.3787              3080.3505
 Red. masses --      1.0545                 1.0830                 1.0599
 Frc consts  --      5.7808                 5.9487                 5.9254
 IR Inten    --     29.1062                15.1084                20.4701

                     70                     71                     72
                      A                      A                      A
 Frequencies --   3087.4500              3101.0479              3108.7126
 Red. masses --      1.0592                 1.0989                 1.0984
 Frc consts  --      5.9485                 6.2260                 6.2539
 IR Inten    --      9.0089                47.8854                30.9602

                     73                     74                     75
                      A                      A                      A
 Frequencies --   3123.2882              3133.8137              3140.5509
 Red. masses --      1.1007                 1.1059                 1.1062
 Frc consts  --      6.3263                 6.3991                 6.4281
 IR Inten    --     31.3078                 2.4295                12.4191

                     76                     77                     78
                      A                      A                      A
 Frequencies --   3198.2814              3442.5038              3456.3732
 Red. masses --      1.0939                 1.0501                 1.0473
 Frc consts  --      6.5928                 7.3321                 7.3713
 IR Inten    --      7.8282                 3.1056                 4.2851

                     79                     80                     81
                      A                      A                      A
 Frequencies --   3491.3093              3529.8155              3563.5273
 Red. masses --      1.0754                 1.0910                 1.0970
 Frc consts  --      7.7229                 8.0091                 8.2078
 IR Inten    --      6.0472                 1.2856                 1.1131

 - Thermochemistry -
 -------------------
 Temperature   298.150 Kelvin.  Pressure   1.00000 Atm.
 Atom     1 has atomic number  6 and mass  12.00000

 Molecular mass:   191.10923 amu.
 Principal axes and moments of inertia in atomic units:
                           1         2         3
     Eigenvalues --  1228.950464476.600734711.13283
           X            0.99987   0.01631  -0.00129
           Y           -0.01635   0.99908  -0.03973
           Z            0.00064   0.03974   0.99921
 This molecule is an asymmetric top.
 Rotational symmetry number  1.
 Warning -- assumption of classical behavior for rotation
           may cause significant error
 Rotational temperatures (Kelvin)      0.07048     0.01935     0.01838
 Rotational constants (GHZ):           1.46852     0.40315     0.38308
 Zero-point vibrational energy     666698.9 (Joules/Mol)
                                  159.34487 (Kcal/Mol)
 Warning -- explicit consideration of  22 degrees of freedom as
           vibrations may cause significant error
 Vibrational temperatures:     26.53    59.12    74.25   113.21   142.58
          (Kelvin)            216.55   239.01   313.16   322.98   343.72
                              366.24   380.05   407.22   438.64   481.15
                              491.40   540.52   583.29   647.35   664.02
                              753.42   849.37   945.41   989.29  1063.89
                             1080.87  1113.68  1182.57  1239.85  1289.53
                             1316.02  1329.64  1347.87  1386.15  1495.03
                             1510.14  1550.77  1597.81  1632.73  1686.56
                             1697.54  1714.20  1790.59  1830.44  1872.39
                             1897.87  1937.64  1953.26  1989.47  1996.61
                             2021.68  2043.91  2057.13  2072.59  2130.54
                             2144.19  2149.87  2181.25  2189.88  2209.49
                             2225.03  2439.74  2450.87  2554.30  4363.91
                             4376.79  4388.82  4393.13  4431.94  4442.15
                             4461.72  4472.74  4493.72  4508.86  4518.55
                             4601.61  4953.00  4972.95  5023.22  5078.62
                             5127.12

 Zero-point correction=                           0.253932 (Hartree/Particle)
 Thermal correction to Energy=                    0.269006
 Thermal correction to Enthalpy=                  0.269950
 Thermal correction to Gibbs Free Energy=         0.210640
 Sum of electronic and zero-point Energies=           -914.409816
 Sum of electronic and thermal Energies=              -914.394742
 Sum of electronic and thermal Enthalpies=            -914.393798
 Sum of electronic and thermal Free Energies=         -914.453108

                     E (Thermal)             CV                S
                      KCal/Mol        Cal/Mol-Kelvin    Cal/Mol-Kelvin
 Total                  168.804             54.670            124.829
 Electronic               0.000              0.000              0.000
 Translational            0.889              2.981             41.649
 Rotational               0.889              2.981             31.628
 Vibrational            167.026             48.708             51.553
 Vibration     1          0.593              1.986              6.796
 Vibration     2          0.594              1.981              5.206
 Vibration     3          0.596              1.977              4.755
 Vibration     4          0.600              1.963              3.923
 Vibration     5          0.604              1.950              3.472
 Vibration     6          0.618              1.902              2.666
 Vibration     7          0.624              1.884              2.479
 Vibration     8          0.646              1.814              1.978
 Vibration     9          0.649              1.804              1.923
 Vibration    10          0.657              1.781              1.811
 Vibration    11          0.665              1.755              1.699
 Vibration    12          0.671              1.739              1.634
 Vibration    13          0.682              1.705              1.515
 Vibration    14          0.696              1.664              1.390
 Vibration    15          0.716              1.607              1.239
 Vibration    16          0.721              1.592              1.205
 Vibration    17          0.747              1.522              1.057
 Vibration    18          0.770              1.458              0.943
 Vibration    19          0.809              1.361              0.796
 Vibration    20          0.819              1.335              0.762
 Vibration    21          0.879              1.198              0.602
 Vibration    22          0.948              1.052              0.467

 Optimization completed.
    -- Stationary point found.
 Normal termination of Gaussian 16 at Wed Dec  9 18:34:19 2020.

 ----------------------------------------------------------------------
 # B3LYP/6-311++G(d,p) empiricaldispersion=gd3bj scf=xqc pop=npa geom=c
 heck
 ----------------------------------------------------------------------

 --------------------------------------
 CID_66219160_JID_2991_Energie_neutraal
 --------------------------------------
 Structure from the checkpoint file:  "JID_2991.chk"
 Charge =  0 Multiplicity = 1

 SCF Done:  E(RB3LYP) =  -914.862415570     A.U. after   14 cycles
 Normal termination of Gaussian 16 at Wed Dec  9 18:37:01 2020.

 ----------------------------------------------------------------------
 # B3LYP/6-311++G(d,p) empiricaldispersion=gd3bj scf=xqc pop=npa geom=c
 heck
 ----------------------------------------------------------------------

 ------------------------------------
 CID_66219160_JID_2991_Energie_kation
 ------------------------------------
 Structure from the checkpoint file:  "JID_2991.chk"
 Charge =  1 Multiplicity = 2

 SCF Done:  E(UB3LYP) =  -914.561678081     A.U. after   25 cycles
 Normal termination of Gaussian 16 at Wed Dec  9 18:43:19 2020.
 Gaussian 16:  ES64L-G16RevA.03 25-Dec-2016

 ----------------------------------------------------------------------
 # B3LYP/6-311++G(d,p) empiricaldispersion=gd3bj scf=xqc pop=npa geom=c
 heck
 ----------------------------------------------------------------------

 -----------------------------------
 CID_66219160_JID_2991_Energie_anion
 -----------------------------------
 Structure from the checkpoint file:  "JID_2991.chk"
 Charge = -1 Multiplicity = 2

                         Standard orientation:
 ---------------------------------------------------------------------
 Center     Atomic      Atomic             Coordinates (Angstroms)
 Number     Number       Type             X           Y           Z
 ---------------------------------------------------------------------
      1          6           0        1.099535    0.098157    2.023641
      2          6           0        1.528087   -0.817455    0.873138
      3          6           0        0.371680   -1.325517   -0.016138
      4         16           0       -0.410489   -0.121235   -1.166090
      5          6           0       -1.682750    0.691643   -0.117061
      6          6           0       -3.104969    0.150302   -0.314121
      7          6           0       -3.244903   -1.316402    0.110579
      8          7           0       -4.016499    1.069739    0.387444
      9          6           0        2.675088   -0.361913   -0.035797
     10          8           0        3.413431   -1.198636   -0.544197
     11          7           0        2.895058    0.967926   -0.308860
     12          7           0        1.952805    1.982912   -0.079952
     13          1           0        0.633584    1.016037    1.672297
     14          1           0        1.967066    0.382645    2.628793
     15          1           0        0.402186   -0.443680    2.675079
     16          1           0        1.942933   -1.731178    1.318276
     17          1           0        0.762851   -2.109469   -0.670638
     18          1           0       -0.409607   -1.772637    0.605898
     19          1           0       -1.380509    0.601570    0.930381
     20          1           0       -1.675966    1.756047   -0.365395
     21          1           0       -3.344319    0.228069   -1.382288
     22          1           0       -2.997748   -1.434749    1.174499
     23          1           0       -4.274802   -1.662673   -0.034678
     24          1           0       -2.585412   -1.968729   -0.471244
     25          1           0       -4.980345    0.791467    0.204671
     26          1           0       -3.887454    0.961734    1.394804
     27          1           0        3.579862    1.088049   -1.053089
     28          1           0        2.448136    2.836385    0.163785
     29          1           0        1.389755    2.133049   -0.916005
 ---------------------------------------------------------------------

 SCF Done:  E(UB3LYP) =  -914.852891146     A.U. after   29 cycles

 The electronic state is 2-A.
 Alpha  occ. eigenvalues --  -88.74106 -18.99276 -14.26272 -14.23439 -14.19599
 Alpha  occ. eigenvalues --  -10.17645 -10.10939 -10.10666 -10.09578 -10.09561
 Alpha  occ. eigenvalues --  -10.06277 -10.06249  -7.82734  -5.79134  -5.78757
 Alpha  occ. eigenvalues --   -5.78104  -0.94925  -0.87989  -0.79523  -0.72747
 Alpha  occ. eigenvalues --   -0.69901  -0.67867  -0.63283  -0.60176  -0.55448
 Alpha  occ. eigenvalues --   -0.52162  -0.48211  -0.46165  -0.43819  -0.41359
 Alpha  occ. eigenvalues --   -0.39677  -0.38144  -0.37031  -0.35751  -0.34768
 Alpha  occ. eigenvalues --   -0.33543  -0.32905  -0.31579  -0.30365  -0.29088
 Alpha  occ. eigenvalues --   -0.28759  -0.27815  -0.26250  -0.26179  -0.24945
 Alpha  occ. eigenvalues --   -0.23668  -0.20836  -0.18855  -0.16118  -0.15786
 Alpha  occ. eigenvalues --   -0.15233  -0.12999   0.04083
 Alpha virt. eigenvalues --    0.05613   0.07161   0.07885   0.08880   0.09106
 Alpha virt. eigenvalues --    0.09273   0.09657   0.10410   0.11194   0.11288
 Alpha virt. eigenvalues --    0.12044   0.12472   0.12647   0.13403   0.14005

  Beta  occ. eigenvalues --  -88.74101 -18.99271 -14.26255 -14.23371 -14.19557
  Beta  occ. eigenvalues --  -10.17642 -10.10932 -10.10658 -10.09562 -10.09557
  Beta  occ. eigenvalues --  -10.06241 -10.06230  -7.82729  -5.79129  -5.78745
  Beta  occ. eigenvalues --   -5.78100  -0.94906  -0.87930  -0.79459  -0.72724
  Beta  occ. eigenvalues --   -0.69794  -0.67822  -0.63234  -0.60133  -0.55403
  Beta  occ. eigenvalues --   -0.52118  -0.48149  -0.46132  -0.43714  -0.41275
  Beta  occ. eigenvalues --   -0.39629  -0.38115  -0.37004  -0.35704  -0.34725
  Beta  occ. eigenvalues --   -0.33520  -0.32878  -0.31541  -0.30336  -0.29064
  Beta  occ. eigenvalues --   -0.28728  -0.27788  -0.26216  -0.26152  -0.24903
  Beta  occ. eigenvalues --   -0.23640  -0.20798  -0.18809  -0.16099  -0.15746
  Beta  occ. eigenvalues --   -0.15189  -0.12979
  Beta virt. eigenvalues --    0.06494   0.07174   0.07590   0.08291   0.09210
  Beta virt. eigenvalues --    0.09470   0.09833   0.09902   0.10650   0.11505
  Beta virt. eigenvalues --    0.11650   0.12252   0.12808   0.12841   0.13546

 Mulliken charges and spin densities:
               1          2
     1  C    0.213919  -1.098271
     2  C    0.026615   0.570314
     3  C   -0.546769  -0.094580
     4  S    0.651494  -0.398124
     5  C   -0.887997   0.396823
     6  C    0.736859  -0.929349
     7  C    0.064695  -0.729744
     8  N   -0.388204   0.125041
     9  C    0.002002  -0.233363
    10  O   -0.321234   0.010183
    11  N   -0.142060  -0.016378
    12  N   -0.138912  -0.291839
    13  H    0.056661   0.160321
    14  H   -0.026769   0.184303
    15  H   -0.096704   0.231978
    16  H    0.113932   0.115098
    17  H    0.281440  -0.048740
    18  H    0.172684  -0.007222
    19  H    0.283880  -0.117857
    20  H   -0.149298   0.417061
    21  H    0.084608   0.086996
    22  H   -0.128044   0.285326
    23  H   -0.376988   0.518964
    24  H   -0.040792   0.169727
    25  H   -0.091045   0.328193
    26  H   -0.120664   0.327637
    27  H   -0.010262   0.290694
    28  H   -0.379902   0.675144
    29  H    0.156854   0.071664
 Sum of Mulliken charges =  -1.00000   1.00000

 Dipole moment (field-independent basis, Debye):
    X=              1.3470    Y=             -3.4011    Z=             -0.9468  Tot=              3.7786
 Quadrupole moment (field-independent basis, Debye-Ang):
   XX=           -170.8204   YY=           -126.3160   ZZ=           -111.5305
   XY=             -3.1199   XZ=              7.0171   YZ=             -3.1872

 Summary of Natural Population Analysis:

                                       Natural Population
                Natural  -----------------------------------------------
    Atom  No    Charge         Core      Valence    Rydberg      Total
 -----------------------------------------------------------------------
      C    1   -0.29126      0.99965     2.28460    0.00701     3.29126
      C    2   -0.15299      0.99954     2.14205    0.01140     3.15299
      C    3   -0.24404      0.99956     2.23548    0.00900     3.24404
      S    4    0.08135      4.99962     2.90212    0.01691     7.91865
      C    5   -0.25133      0.99955     2.24051    0.01127     3.25133
      C    6   -0.02167      0.99960     2.00940    0.01268     3.02167
      C    7   -0.29737      0.99964     2.29101    0.00673     3.29737
      N    8   -0.42060      0.99977     2.90998    0.01085     3.92060
      C    9    0.34697      0.99963     1.62832    0.02508     2.65303
      O   10   -0.32979      0.99988     3.32422    0.00569     4.32979
      N   11   -0.23220      0.99965     2.71718    0.01537     3.73220
      N   12   -0.31978      0.99976     2.80563    0.01439     3.81978
      H   13    0.11457      0.00000     0.38377    0.00165     0.38543
      H   14    0.10163      0.00000     0.39739    0.00098     0.39837
      H   15    0.09602      0.00000     0.40290    0.00108     0.40398
      H   16    0.10912      0.00000     0.38913    0.00174     0.39088
      H   17    0.11119      0.00000     0.38781    0.00100     0.38881
      H   18    0.10550      0.00000     0.39327    0.00124     0.39450
      H   19    0.10435      0.00000     0.39387    0.00178     0.39565
      H   20    0.11259      0.00000     0.38591    0.00150     0.38741
      H   21    0.08910      0.00000     0.40894    0.00195     0.41090
      H   22    0.09575      0.00000     0.40258    0.00166     0.40425
      H   23    0.10066      0.00000     0.39778    0.00156     0.39934
      H   24    0.10241      0.00000     0.39647    0.00112     0.39759
      H   25    0.17637      0.00000     0.32121    0.00241     0.32363
      H   26    0.17230      0.00000     0.32513    0.00258     0.32770
      H   27    0.18168      0.00000     0.31513    0.00319     0.31832
      H   28    0.18080      0.00000     0.31016    0.00904     0.31920
      H   29    0.17865      0.00000     0.31798    0.00337     0.32135
 =======================================================================
   * Total *    0.00000     15.99584    35.81994    0.18422    52.00000

 Normal termination of Gaussian 16 at Wed Dec  9 18:50:33 2020.
