 Gaussian 16, Revision A.03,

 -----------------------------------------------------------
 # opt freq B3LYP/6-31G(d) empiricaldispersion=gd3bj scf=xqc
 -----------------------------------------------------------

 ------------------------------
 CID_84085453_JID_7063_neutraal
 ------------------------------
 Symbolic Z-matrix:
 Charge =  0 Multiplicity = 1

 SCF Done:  E(RB3LYP) =  -730.311743182     A.U. after   15 cycles
 SCF Done:  E(RB3LYP) =  -730.314660115     A.U. after   12 cycles
 SCF Done:  E(RB3LYP) =  -730.315290441     A.U. after   11 cycles
 SCF Done:  E(RB3LYP) =  -730.315523700     A.U. after   12 cycles
 SCF Done:  E(RB3LYP) =  -730.315602000     A.U. after   11 cycles
 SCF Done:  E(RB3LYP) =  -730.315666700     A.U. after   11 cycles
 SCF Done:  E(RB3LYP) =  -730.315677961     A.U. after    9 cycles
 SCF Done:  E(RB3LYP) =  -730.315681696     A.U. after    8 cycles
 SCF Done:  E(RB3LYP) =  -730.315684669     A.U. after    9 cycles
 SCF Done:  E(RB3LYP) =  -730.315684901     A.U. after    7 cycles
 SCF Done:  E(RB3LYP) =  -730.315685136     A.U. after    7 cycles
 SCF Done:  E(RB3LYP) =  -730.315685376     A.U. after    7 cycles
 SCF Done:  E(RB3LYP) =  -730.315685437     A.U. after    6 cycles
 Optimization completed.
    -- Stationary point found.
 Normal termination of Gaussian 16 at Fri Dec 11 11:49:22 2020.

 --------------------------------------------------------------------
 #N Geom=AllCheck Guess=TCheck SCRF=Check GenChk RB3LYP/6-31G(d) Freq
 --------------------------------------------------------------------

 Structure from the checkpoint file:  "JID_7063.chk"
 ------------------------------
 CID_84085453_JID_7063_neutraal
 ------------------------------
 Charge =  0 Multiplicity = 1

 SCF Done:  E(RB3LYP) =  -730.315685437     A.U. after    1 cycles

  Exact polarizability: 181.950  11.786 133.499  -9.508   5.100 129.978
 Approx polarizability: 236.555  18.802 213.656 -20.177  18.098 208.215

                      1                      2                      3
                      A                      A                      A
 Frequencies --     27.6348                44.0288                57.4307
 Red. masses --      4.1128                 5.1808                 4.5534
 Frc consts  --      0.0019                 0.0059                 0.0088
 IR Inten    --      1.7531                 5.5204                 0.5246

                      4                      5                      6
                      A                      A                      A
 Frequencies --    150.8142               182.0406               230.1038
 Red. masses --      4.0945                 4.2697                 4.1355
 Frc consts  --      0.0549                 0.0834                 0.1290
 IR Inten    --      1.0781                 3.7480                 2.4915

                      7                      8                      9
                      A                      A                      A
 Frequencies --    269.1514               300.5143               327.0902
 Red. masses --      1.1011                 2.2185                 2.1208
 Frc consts  --      0.0470                 0.1180                 0.1337
 IR Inten    --     30.7691                 0.3298                 0.1245

                     10                     11                     12
                      A                      A                      A
 Frequencies --    336.1698               350.9458               389.6513
 Red. masses --      3.4883                 2.7023                 2.0510
 Frc consts  --      0.2323                 0.1961                 0.1835
 IR Inten    --      2.2237                 1.0043                 0.2326

                     13                     14                     15
                      A                      A                      A
 Frequencies --    420.4638               431.5169               437.3022
 Red. masses --      4.3707                 3.2850                 3.0578
 Frc consts  --      0.4553                 0.3604                 0.3445
 IR Inten    --      0.9552                 1.4744                 1.3835

                     16                     17                     18
                      A                      A                      A
 Frequencies --    455.6894               461.2681               529.9395
 Red. masses --      1.7832                 2.1124                 3.7260
 Frc consts  --      0.2182                 0.2648                 0.6165
 IR Inten    --      0.1897                 0.4776                 0.4425

                     19                     20                     21
                      A                      A                      A
 Frequencies --    591.2290               633.4946               641.6807
 Red. masses --      1.5488                 5.2595                 3.6317
 Frc consts  --      0.3190                 1.2436                 0.8811
 IR Inten    --    359.4776                 1.2266                 0.4603

                     22                     23                     24
                      A                      A                      A
 Frequencies --    651.9300               680.9054               695.4216
 Red. masses --      3.5325                 3.3938                 4.2082
 Frc consts  --      0.8846                 0.9271                 1.1991
 IR Inten    --      0.5720                 4.8229                30.5410

                     25                     26                     27
                      A                      A                      A
 Frequencies --    713.9951               734.3649               758.3129
 Red. masses --      2.1228                 1.7866                 4.4221
 Frc consts  --      0.6376                 0.5677                 1.4982
 IR Inten    --      2.7352                51.0773                 0.1808

                     28                     29                     30
                      A                      A                      A
 Frequencies --    790.2219               796.1950               811.3154
 Red. masses --      3.5786                 3.6627                 2.6990
 Frc consts  --      1.3166                 1.3680                 1.0467
 IR Inten    --      5.0607                11.6057                 0.5602

                     31                     32                     33
                      A                      A                      A
 Frequencies --    839.1239               887.6314               895.2830
 Red. masses --      2.9190                 5.0926                 2.2642
 Frc consts  --      1.2110                 2.3640                 1.0693
 IR Inten    --      6.1851                30.4440                 6.0523

                     34                     35                     36
                      A                      A                      A
 Frequencies --    905.8991               908.7872               925.0635
 Red. masses --      1.5760                 1.7198                 2.1147
 Frc consts  --      0.7620                 0.8369                 1.0662
 IR Inten    --      0.0931                 0.1046                 0.2712

                     37                     38                     39
                      A                      A                      A
 Frequencies --    944.2273               957.3945               987.3487
 Red. masses --      1.8758                 2.0756                 2.0908
 Frc consts  --      0.9853                 1.1209                 1.2009
 IR Inten    --      1.8013                 1.6834                 0.7657

                     40                     41                     42
                      A                      A                      A
 Frequencies --   1003.4502              1021.0415              1032.8428
 Red. masses --      2.1564                 2.9907                 3.8828
 Frc consts  --      1.2793                 1.8370                 2.4404
 IR Inten    --      1.3175                 0.8286                 4.2127

                     43                     44                     45
                      A                      A                      A
 Frequencies --   1042.5058              1057.1533              1057.6800
 Red. masses --      4.0710                 1.9052                 1.9986
 Frc consts  --      2.6068                 1.2545                 1.3173
 IR Inten    --      3.0639                 0.2055                 0.6142

                     46                     47                     48
                      A                      A                      A
 Frequencies --   1079.0856              1089.3893              1100.0973
 Red. masses --      2.5579                 1.7914                 1.4612
 Frc consts  --      1.7549                 1.2526                 1.0419
 IR Inten    --      0.2593                 1.0534                 1.8782

                     49                     50                     51
                      A                      A                      A
 Frequencies --   1114.0604              1129.9042              1131.0360
 Red. masses --      1.9891                 1.5984                 1.7331
 Frc consts  --      1.4545                 1.2023                 1.3063
 IR Inten    --      5.7112                 2.6842                 8.2382

                     52                     53                     54
                      A                      A                      A
 Frequencies --   1141.5288              1144.0197              1149.8833
 Red. masses --      1.0197                 1.0313                 1.0342
 Frc consts  --      0.7829                 0.7953                 0.8057
 IR Inten    --      0.5302                 1.5973                 0.7664

                     55                     56                     57
                      A                      A                      A
 Frequencies --   1189.8768              1204.8096              1226.7351
 Red. masses --      1.6182                 1.3154                 1.2857
 Frc consts  --      1.3499                 1.1250                 1.1399
 IR Inten    --      6.3615                 0.4345                 1.2749

                     58                     59                     60
                      A                      A                      A
 Frequencies --   1254.6674              1279.1173              1314.4064
 Red. masses --      1.0371                 1.3163                 1.5497
 Frc consts  --      0.9619                 1.2689                 1.5774
 IR Inten    --      2.8698                 0.1532                 0.2843

                     61                     62                     63
                      A                      A                      A
 Frequencies --   1327.1767              1336.7197              1349.0281
 Red. masses --      1.6876                 1.6656                 1.8080
 Frc consts  --      1.7514                 1.7535                 1.9386
 IR Inten    --      0.3125                 0.0861                 0.5066

                     64                     65                     66
                      A                      A                      A
 Frequencies --   1359.0896              1359.9479              1367.7363
 Red. masses --      1.8686                 1.9636                 1.3555
 Frc consts  --      2.0336                 2.1397                 1.4940
 IR Inten    --      1.7789                 0.7628                 0.1605

                     67                     68                     69
                      A                      A                      A
 Frequencies --   1368.5246              1372.1242              1389.0689
 Red. masses --      1.3147                 1.3955                 2.7642
 Frc consts  --      1.4507                 1.5480                 3.1424
 IR Inten    --      0.0933                 0.6993                 3.0689

                     70                     71                     72
                      A                      A                      A
 Frequencies --   1395.7384              1401.0618              1409.9864
 Red. masses --      1.4618                 1.6203                 1.4322
 Frc consts  --      1.6778                 1.8739                 1.6776
 IR Inten    --      4.9600                 1.0165                 0.6119

                     73                     74                     75
                      A                      A                      A
 Frequencies --   1416.7727              1422.3270              1432.6880
 Red. masses --      1.4538                 1.5675                 1.5799
 Frc consts  --      1.7194                 1.8683                 1.9107
 IR Inten    --      0.1596                 0.0105                 1.1633

                     76                     77                     78
                      A                      A                      A
 Frequencies --   1497.6690              1509.2827              1513.2535
 Red. masses --      2.7688                 1.2654                 1.1195
 Frc consts  --      3.6591                 1.6983                 1.5104
 IR Inten    --     44.9560                18.0327                 7.6275

                     79                     80                     81
                      A                      A                      A
 Frequencies --   1515.9999              1526.5075              1530.8065
 Red. masses --      1.1212                 1.1036                 1.1033
 Frc consts  --      1.5182                 1.5151                 1.5234
 IR Inten    --      3.0854                 8.0893                 8.1821

                     82                     83                     84
                      A                      A                      A
 Frequencies --   1546.8467              1559.2569              1649.3282
 Red. masses --      1.0946                 5.0013                 1.8979
 Frc consts  --      1.5431                 7.1642                 3.0419
 IR Inten    --      3.0946               111.7040                57.3122

                     85                     86                     87
                      A                      A                      A
 Frequencies --   1696.2753              3001.0995              3020.7079
 Red. masses --      2.1945                 1.0830                 1.0721
 Frc consts  --      3.7203                 5.7467                 5.7636
 IR Inten    --    315.5788                21.8336                 7.2624

                     88                     89                     90
                      A                      A                      A
 Frequencies --   3023.9968              3024.7407              3029.0273
 Red. masses --      1.0645                 1.0605                 1.0686
 Frc consts  --      5.7356                 5.7166                 5.7765
 IR Inten    --     11.0585                23.5846                20.0976

                     91                     92                     93
                      A                      A                      A
 Frequencies --   3035.9287              3039.8067              3046.6851
 Red. masses --      1.0720                 1.0692                 1.0802
 Frc consts  --      5.8212                 5.8208                 5.9076
 IR Inten    --     16.8266                82.5620               131.7951

                     94                     95                     96
                      A                      A                      A
 Frequencies --   3047.4964              3054.2453              3060.1103
 Red. masses --      1.0700                 1.0789                 1.1051
 Frc consts  --      5.8551                 5.9297                 6.0969
 IR Inten    --     52.1599                84.8318                 1.2625

                     97                     98                     99
                      A                      A                      A
 Frequencies --   3065.2847              3066.0008              3068.1578
 Red. masses --      1.1022                 1.1032                 1.0860
 Frc consts  --      6.1018                 6.1099                 6.0233
 IR Inten    --     70.2911                69.0877                45.9456

                    100                    101                    102
                      A                      A                      A
 Frequencies --   3075.9789              3085.4324              3125.2111
 Red. masses --      1.1009                 1.0986                 1.0922
 Frc consts  --      6.1374                 6.1618                 6.2849
 IR Inten    --     47.4167                43.1240                17.8183

                    103                    104                    105
                      A                      A                      A
 Frequencies --   3286.1628              3561.2180              3666.0409
 Red. masses --      1.0977                 1.0478                 1.0989
 Frc consts  --      6.9841                 7.8292                 8.7019
 IR Inten    --      1.7328                37.3226                26.2053

 - Thermochemistry -
 -------------------
 Temperature   298.150 Kelvin.  Pressure   1.00000 Atm.
 Atom     1 has atomic number  6 and mass  12.00000

 Molecular mass:   232.15756 amu.
 Principal axes and moments of inertia in atomic units:
                           1         2         3
     Eigenvalues --  1532.729586929.347757037.53905
           X            0.99996   0.00874   0.00145
           Y           -0.00865   0.99843  -0.05539
           Z           -0.00193   0.05538   0.99846
 This molecule is an asymmetric top.
 Rotational symmetry number  1.
 Warning -- assumption of classical behavior for rotation
           may cause significant error
 Rotational temperatures (Kelvin)      0.05651     0.01250     0.01231
 Rotational constants (GHZ):           1.17747     0.26045     0.25644
 Zero-point vibrational energy     864609.5 (Joules/Mol)
                                  206.64663 (Kcal/Mol)
 Warning -- explicit consideration of  19 degrees of freedom as
           vibrations may cause significant error
 Vibrational temperatures:     39.76    63.35    82.63   216.99   261.92
          (Kelvin)            331.07   387.25   432.37   470.61   483.67
                              504.93   560.62   604.95   620.86   629.18
                              655.64   663.66   762.46   850.65   911.46
                              923.24   937.98   979.67  1000.56  1027.28
                             1056.59  1091.04  1136.95  1145.55  1167.30
                             1207.31  1277.10  1288.11  1303.39  1307.54
                             1330.96  1358.53  1377.48  1420.57  1443.74
                             1469.05  1486.03  1499.93  1521.01  1521.77
                             1552.56  1567.39  1582.79  1602.88  1625.68
                             1627.31  1642.41  1645.99  1654.43  1711.97
                             1733.45  1765.00  1805.19  1840.36  1891.14
                             1909.51  1923.24  1940.95  1955.43  1956.66
                             1967.87  1969.00  1974.18  1998.56  2008.16
                             2015.82  2028.66  2038.42  2046.41  2061.32
                             2154.81  2171.52  2177.23  2181.19  2196.30
                             2202.49  2225.57  2243.42  2373.02  2440.56
                             4317.91  4346.12  4350.86  4351.93  4358.09
                             4368.02  4373.60  4383.50  4384.67  4394.38
                             4402.82  4410.26  4411.29  4414.39  4425.65
                             4439.25  4496.48  4728.06  5123.80  5274.62

 Zero-point correction=                           0.329312 (Hartree/Particle)
 Thermal correction to Energy=                    0.342784
 Thermal correction to Enthalpy=                  0.343728
 Thermal correction to Gibbs Free Energy=         0.288503
 Sum of electronic and zero-point Energies=           -729.986373
 Sum of electronic and thermal Energies=              -729.972902
 Sum of electronic and thermal Enthalpies=            -729.971958
 Sum of electronic and thermal Free Energies=         -730.027182

                     E (Thermal)             CV                S
                      KCal/Mol        Cal/Mol-Kelvin    Cal/Mol-Kelvin
 Total                  215.100             57.216            116.230
 Electronic               0.000              0.000              0.000
 Translational            0.889              2.981             42.229
 Rotational               0.889              2.981             32.680
 Vibrational            213.323             51.255             41.321
 Vibration     1          0.593              1.984              5.992
 Vibration     2          0.595              1.980              5.069
 Vibration     3          0.596              1.975              4.544
 Vibration     4          0.618              1.902              2.662
 Vibration     5          0.630              1.864              2.307
 Vibration     6          0.652              1.795              1.878
 Vibration     7          0.674              1.730              1.602
 Vibration     8          0.693              1.673              1.414
 Vibration     9          0.711              1.621              1.274
 Vibration    10          0.717              1.603              1.230
 Vibration    11          0.728              1.573              1.162
 Vibration    12          0.758              1.492              1.001
 Vibration    13          0.783              1.426              0.890
 Vibration    14          0.793              1.402              0.854
 Vibration    15          0.798              1.389              0.835
 Vibration    16          0.814              1.348              0.779
 Vibration    17          0.819              1.336              0.762
 Vibration    18          0.885              1.184              0.587
 Vibration    19          0.949              1.050              0.465

 Optimization completed.
    -- Stationary point found.
 Normal termination of Gaussian 16 at Fri Dec 11 12:04:56 2020.

 ----------------------------------------------------------------------
 # B3LYP/6-311++G(d,p) empiricaldispersion=gd3bj scf=xqc pop=npa geom=c
 heck
 ----------------------------------------------------------------------

 --------------------------------------
 CID_84085453_JID_7063_Energie_neutraal
 --------------------------------------
 Structure from the checkpoint file:  "JID_7063.chk"
 Charge =  0 Multiplicity = 1

 SCF Done:  E(RB3LYP) =  -730.511847645     A.U. after   15 cycles
 Normal termination of Gaussian 16 at Fri Dec 11 12:12:51 2020.

 ----------------------------------------------------------------------
 # B3LYP/6-311++G(d,p) empiricaldispersion=gd3bj scf=xqc pop=npa geom=c
 heck
 ----------------------------------------------------------------------

 ------------------------------------
 CID_84085453_JID_7063_Energie_kation
 ------------------------------------
 Structure from the checkpoint file:  "JID_7063.chk"
 Charge =  1 Multiplicity = 2

 SCF Done:  E(UB3LYP) =  -730.210668025     A.U. after   29 cycles
 Normal termination of Gaussian 16 at Fri Dec 11 12:30:43 2020.
 Gaussian 16:  ES64L-G16RevA.03 25-Dec-2016

 ----------------------------------------------------------------------
 # B3LYP/6-311++G(d,p) empiricaldispersion=gd3bj scf=xqc pop=npa geom=c
 heck
 ----------------------------------------------------------------------

 -----------------------------------
 CID_84085453_JID_7063_Energie_anion
 -----------------------------------
 Structure from the checkpoint file:  "JID_7063.chk"
 Charge = -1 Multiplicity = 2

                         Standard orientation:
 ---------------------------------------------------------------------
 Center     Atomic      Atomic             Coordinates (Angstroms)
 Number     Number       Type             X           Y           Z
 ---------------------------------------------------------------------
      1          6           0       -3.542370    0.117303   -0.963657
      2          6           0       -2.936758    1.332320   -0.234713
      3          6           0       -1.563532    1.660863   -0.850170
      4          6           0       -0.620750    0.451594   -0.701048
      5          6           0       -1.232532   -0.760472   -1.429040
      6          6           0       -2.605429   -1.097015   -0.815311
      7          6           0       -2.433587   -1.423515    0.680587
      8          6           0       -1.815045   -0.213796    1.410301
      9          6           0       -2.758511    0.995483    1.258108
     10          6           0       -0.438155    0.147346    0.804533
     11          6           0        0.628481   -0.929130    1.094179
     12          6           0        1.965173   -0.584175    0.513868
     13          7           0        2.454279   -1.320417   -0.460853
     14          8           0        3.692816   -0.699674   -0.801333
     15          6           0        3.869643    0.371761   -0.010822
     16          6           0        2.811384    0.511746    0.848271
     17          7           0        5.055417    1.050903   -0.170295
     18          1           0       -3.688469    0.351971   -2.026688
     19          1           0       -4.531363   -0.116809   -0.546650
     20          1           0       -3.605317    2.196625   -0.339193
     21          1           0       -1.128890    2.540180   -0.355115
     22          1           0       -1.679391    1.914956   -1.912395
     23          1           0        0.353743    0.688877   -1.142726
     24          1           0       -0.558574   -1.622962   -1.371493
     25          1           0       -1.347613   -0.524764   -2.495415
     26          1           0       -3.039416   -1.962333   -1.332413
     27          1           0       -3.408540   -1.659069    1.128125
     28          1           0       -1.809438   -2.316671    0.803955
     29          1           0       -1.690414   -0.450825    2.475903
     30          1           0       -2.348095    1.862301    1.793723
     31          1           0       -3.732752    0.768846    1.711805
     32          1           0       -0.094377    1.074119    1.288799
     33          1           0        0.721934   -1.046169    2.181884
     34          1           0        0.330818   -1.901319    0.693902
     35          1           0        2.661405    1.265157    1.606096
     36          1           0        5.488187    0.918423   -1.076615
     37          1           0        5.028093    2.021571    0.112710
 ---------------------------------------------------------------------

 SCF Done:  E(UB3LYP) =  -730.504956032     A.U. after   31 cycles

 The electronic state is 2-A.
 Alpha  occ. eigenvalues --  -19.09705 -14.24536 -14.23468 -10.17433 -10.11085
 Alpha  occ. eigenvalues --  -10.08338 -10.08005 -10.07985 -10.07949 -10.07792
 Alpha  occ. eigenvalues --  -10.07259 -10.07241 -10.07114 -10.07016 -10.06718
 Alpha  occ. eigenvalues --  -10.06691 -10.06467  -1.03378  -0.83349  -0.78433
 Alpha  occ. eigenvalues --   -0.76712  -0.69489  -0.67781  -0.67713  -0.66948
 Alpha  occ. eigenvalues --   -0.62724  -0.57513  -0.55830  -0.51389  -0.49691
 Alpha  occ. eigenvalues --   -0.49331  -0.48743  -0.47309  -0.43078  -0.42749
 Alpha  occ. eigenvalues --   -0.40242  -0.38150  -0.37244  -0.36861  -0.36091
 Alpha  occ. eigenvalues --   -0.35767  -0.35020  -0.33574  -0.31632  -0.31614
 Alpha  occ. eigenvalues --   -0.30867  -0.30300  -0.30079  -0.29979  -0.28320
 Alpha  occ. eigenvalues --   -0.27718  -0.24607  -0.23960  -0.23621  -0.23566
 Alpha  occ. eigenvalues --   -0.23273  -0.22936  -0.20794  -0.19484  -0.19254
 Alpha  occ. eigenvalues --   -0.18988  -0.18257  -0.12399   0.03764
 Alpha virt. eigenvalues --    0.05234   0.06942   0.07111   0.07760   0.08608
 Alpha virt. eigenvalues --    0.09260   0.09293   0.09533   0.10024   0.10274
 Alpha virt. eigenvalues --    0.10667   0.11750   0.11998   0.12635   0.12890

  Beta  occ. eigenvalues --  -19.09695 -14.24525 -14.23376 -10.17424 -10.11085
  Beta  occ. eigenvalues --  -10.08334 -10.08000 -10.07979 -10.07946 -10.07788
  Beta  occ. eigenvalues --  -10.07257 -10.07231 -10.07102 -10.07001 -10.06707
  Beta  occ. eigenvalues --  -10.06686 -10.06446  -1.03360  -0.83240  -0.78413
  Beta  occ. eigenvalues --   -0.76681  -0.69470  -0.67763  -0.67697  -0.66897
  Beta  occ. eigenvalues --   -0.62708  -0.57488  -0.55806  -0.51330  -0.49667
  Beta  occ. eigenvalues --   -0.49309  -0.48702  -0.47263  -0.43021  -0.42688
  Beta  occ. eigenvalues --   -0.40153  -0.38116  -0.37216  -0.36837  -0.36071
  Beta  occ. eigenvalues --   -0.35729  -0.34993  -0.33553  -0.31617  -0.31601
  Beta  occ. eigenvalues --   -0.30849  -0.30278  -0.30059  -0.29957  -0.28306
  Beta  occ. eigenvalues --   -0.27702  -0.24577  -0.23944  -0.23588  -0.23527
  Beta  occ. eigenvalues --   -0.23256  -0.22920  -0.20775  -0.19463  -0.19233
  Beta  occ. eigenvalues --   -0.18968  -0.18239  -0.12344
  Beta virt. eigenvalues --    0.05579   0.07067   0.07190   0.07463   0.08205
  Beta virt. eigenvalues --    0.09167   0.09340   0.09393   0.09907   0.10074
  Beta virt. eigenvalues --    0.10789   0.11103   0.12026   0.12165   0.12654

 Mulliken charges and spin densities:
               1          2
     1  C    0.371402  -1.042414
     2  C   -0.110883   0.567236
     3  C   -0.584051  -0.317036
     4  C    0.211044   0.284771
     5  C   -0.476796  -0.562497
     6  C   -0.180480   0.660551
     7  C   -0.235143  -0.584629
     8  C   -0.172427   0.791177
     9  C   -0.020344  -0.843597
    10  C    0.744066  -0.816362
    11  C    0.205656  -0.517787
    12  C    0.984635  -1.076288
    13  N   -0.379559   0.061638
    14  O    0.144895  -0.040068
    15  C    0.642609  -1.083346
    16  C   -1.057762   1.017011
    17  N   -0.369625   0.073945
    18  H    0.016241   0.117346
    19  H   -0.078212   0.223902
    20  H   -0.009679   0.236399
    21  H   -0.158307   0.309515
    22  H    0.053385   0.084124
    23  H    0.169919   0.131986
    24  H    0.152913   0.007090
    25  H    0.087795   0.057407
    26  H    0.102409   0.116497
    27  H   -0.128414   0.287976
    28  H    0.088682   0.025449
    29  H    0.022392   0.204110
    30  H   -0.184333   0.315212
    31  H   -0.093374   0.251375
    32  H    0.505204  -0.270979
    33  H    0.123139   0.042064
    34  H    0.168087   0.011238
    35  H   -0.725344   0.898504
    36  H   -0.241784   0.511409
    37  H   -0.587955   0.867072
 Sum of Mulliken charges =  -1.00000   1.00000

 Dipole moment (field-independent basis, Debye):
    X=             -6.8571    Y=             -4.3451    Z=             -0.0241  Tot=              8.1179
 Quadrupole moment (field-independent basis, Debye-Ang):
   XX=           -211.2630   YY=           -148.5061   ZZ=           -133.4644
   XY=            -15.8817   XZ=              4.9599   YZ=             -4.1987

 Summary of Natural Population Analysis:

                                       Natural Population
                Natural  -----------------------------------------------
    Atom  No    Charge         Core      Valence    Rydberg      Total
 -----------------------------------------------------------------------
      C    1   -0.18783      0.99960     2.17853    0.00969     3.18783
      C    2   -0.11145      0.99959     2.10067    0.01119     3.11145
      C    3   -0.18586      0.99961     2.17625    0.01000     3.18586
      C    4   -0.11383      0.99957     2.10244    0.01181     3.11383
      C    5   -0.19023      0.99960     2.18231    0.00832     3.19023
      C    6   -0.11182      0.99959     2.10155    0.01067     3.11182
      C    7   -0.18913      0.99960     2.18019    0.00934     3.18913
      C    8   -0.10847      0.99958     2.09721    0.01169     3.10847
      C    9   -0.18620      0.99960     2.17669    0.00991     3.18620
      C   10   -0.10072      0.99956     2.08983    0.01133     3.10072
      C   11   -0.20482      0.99957     2.19620    0.00905     3.20482
      C   12    0.09465      0.99960     1.88983    0.01592     2.90535
      N   13   -0.10556      0.99967     2.59419    0.01170     3.60556
      O   14   -0.18364      0.99985     3.17577    0.00802     4.18364
      C   15    0.27127      0.99952     1.71188    0.01733     2.72873
      C   16   -0.20906      0.99943     2.20017    0.00946     3.20906
      N   17   -0.39492      0.99970     2.88522    0.01000     3.89492
      H   18    0.09722      0.00000     0.40182    0.00096     0.40278
      H   19    0.09767      0.00000     0.40131    0.00102     0.40233
      H   20    0.09849      0.00000     0.40015    0.00137     0.40151
      H   21    0.10085      0.00000     0.39801    0.00114     0.39915
      H   22    0.09746      0.00000     0.40158    0.00096     0.40254
      H   23    0.10831      0.00000     0.39021    0.00148     0.39169
      H   24    0.10361      0.00000     0.39523    0.00116     0.39639
      H   25    0.09787      0.00000     0.40115    0.00098     0.40213
      H   26    0.09674      0.00000     0.40192    0.00134     0.40326
      H   27    0.09863      0.00000     0.40039    0.00098     0.40137
      H   28    0.09797      0.00000     0.40105    0.00098     0.40203
      H   29    0.09850      0.00000     0.40009    0.00141     0.40150
      H   30    0.09993      0.00000     0.39892    0.00115     0.40007
      H   31    0.09799      0.00000     0.40093    0.00108     0.40201
      H   32    0.10075      0.00000     0.39734    0.00192     0.39925
      H   33    0.10565      0.00000     0.39324    0.00110     0.39435
      H   34    0.10765      0.00000     0.39097    0.00138     0.39235
      H   35    0.11578      0.00000     0.38306    0.00115     0.38422
      H   36    0.19528      0.00000     0.30079    0.00393     0.30472
      H   37    0.20125      0.00000     0.27756    0.02119     0.29875
 =======================================================================
   * Total *    0.00000     16.99326    45.77466    0.23208    63.00000

 Normal termination of Gaussian 16 at Fri Dec 11 12:55:53 2020.
