 Gaussian 16, Revision A.03,

 -----------------------------------------------------------
 # opt freq B3LYP/6-31G(d) empiricaldispersion=gd3bj scf=xqc
 -----------------------------------------------------------

 -------------------------------
 CID_145026287_JID_2184_neutraal
 -------------------------------
 Symbolic Z-matrix:
 Charge =  0 Multiplicity = 1

 SCF Done:  E(RB3LYP) =  -513.839720652     A.U. after   14 cycles
 SCF Done:  E(RB3LYP) =  -513.842750510     A.U. after   12 cycles
 SCF Done:  E(RB3LYP) =  -513.843358647     A.U. after   12 cycles
 SCF Done:  E(RB3LYP) =  -513.843704544     A.U. after   12 cycles
 SCF Done:  E(RB3LYP) =  -513.843983823     A.U. after   12 cycles
 SCF Done:  E(RB3LYP) =  -513.844187351     A.U. after   12 cycles
 SCF Done:  E(RB3LYP) =  -513.844563732     A.U. after   12 cycles
 SCF Done:  E(RB3LYP) =  -513.844720448     A.U. after   12 cycles
 SCF Done:  E(RB3LYP) =  -513.844725308     A.U. after   10 cycles
 SCF Done:  E(RB3LYP) =  -513.844774887     A.U. after   11 cycles
 SCF Done:  E(RB3LYP) =  -513.845158725     A.U. after   12 cycles
 SCF Done:  E(RB3LYP) =  -513.845213403     A.U. after   11 cycles
 SCF Done:  E(RB3LYP) =  -513.845238101     A.U. after   11 cycles
 SCF Done:  E(RB3LYP) =  -513.845244628     A.U. after   11 cycles
 SCF Done:  E(RB3LYP) =  -513.845245112     A.U. after    9 cycles
 Optimization completed.
    -- Stationary point found.

 1\1\GINC-NODE203\FOpt\RB3LYP\6-31G(d)\C9H11N3\VSC10255\09-Dec-2020\0\\
 # opt freq B3LYP/6-31G(d) empiricaldispersion=gd3bj scf=xqc\\CID_14502
 6287_JID_2184_neutraal\\0,1\C,1.4612928062,-0.4195308556,-0.1615076028
 \C,0.7265954393,-0.4075870564,-1.4782194479\N,-0.1789309347,-1.2689518
 889,-1.8069909365\N,-0.4135906481,-2.2907649476,-0.8882611985\C,-1.542
 2037598,-2.8813340894,-1.1169314422\N,-2.4930548258,-2.5057522018,-2.0
 21539141\C,1.0386961073,0.6511067096,-2.468737758\C,0.5556311812,0.566
 3433436,-3.7871589923\C,0.8426054725,1.5587336666,-4.7165235887\C,1.61

 Normal termination of Gaussian 16 at Wed Dec  9 16:55:50 2020.

 --------------------------------------------------------------------
 #N Geom=AllCheck Guess=TCheck SCRF=Check GenChk RB3LYP/6-31G(d) Freq
 --------------------------------------------------------------------

 Structure from the checkpoint file:  "JID_2184.chk"
 -------------------------------
 CID_145026287_JID_2184_neutraal
 -------------------------------
 Charge =  0 Multiplicity = 1

 SCF Done:  E(RB3LYP) =  -513.845245112     A.U. after    1 cycles

  Exact polarizability: 200.992 -11.356 122.321  -3.236   3.591  50.070
 Approx polarizability: 294.420 -27.478 203.255  -7.927   6.848  79.137

                      1                      2                      3
                      A                      A                      A
 Frequencies --     29.8643                66.6379                95.4630
 Red. masses --      3.9536                 4.2683                 4.3733
 Frc consts  --      0.0021                 0.0112                 0.0235
 IR Inten    --      2.9671                 4.7661                 1.2700

                      4                      5                      6
                      A                      A                      A
 Frequencies --    128.4356               174.6535               209.8628
 Red. masses --      3.7538                 1.0564                 3.9225
 Frc consts  --      0.0365                 0.0190                 0.1018
 IR Inten    --      0.6160                 0.1177                 0.9808

                      7                      8                      9
                      A                      A                      A
 Frequencies --    269.4852               333.9033               357.4168
 Red. masses --      3.0696                 3.0603                 6.5507
 Frc consts  --      0.1313                 0.2010                 0.4930
 IR Inten    --      8.4165                 1.4200                 1.7234

                     10                     11                     12
                      A                      A                      A
 Frequencies --    404.5866               416.9483               427.0581
 Red. masses --      1.8228                 2.8265                 1.9088
 Frc consts  --      0.1758                 0.2895                 0.2051
 IR Inten    --    100.0181                10.5434               147.5816

                     13                     14                     15
                      A                      A                      A
 Frequencies --    468.0069               545.4964               581.8309
 Red. masses --      3.1172                 2.5002                 2.8371
 Frc consts  --      0.4023                 0.4383                 0.5659
 IR Inten    --     28.7192                55.7818                10.9391

                     16                     17                     18
                      A                      A                      A
 Frequencies --    635.0590               644.1979               672.7737
 Red. masses --      5.8811                 3.9585                 2.0943
 Frc consts  --      1.3975                 0.9679                 0.5585
 IR Inten    --      2.0859                19.0704                57.3689

                     19                     20                     21
                      A                      A                      A
 Frequencies --    698.0148               709.7127               783.3247
 Red. masses --      2.9232                 1.7954                 1.8767
 Frc consts  --      0.8391                 0.5328                 0.6785
 IR Inten    --     10.2819                44.5668                22.3399

                     22                     23                     24
                      A                      A                      A
 Frequencies --    812.7159               860.2760               933.8948
 Red. masses --      3.1714                 1.2502                 1.3941
 Frc consts  --      1.2342                 0.5452                 0.7164
 IR Inten    --      1.9957                 0.1707                 2.8821

                     25                     26                     27
                      A                      A                      A
 Frequencies --    952.7354               961.7722               974.3611
 Red. masses --      1.3807                 3.8808                 1.3398
 Frc consts  --      0.7384                 2.1150                 0.7494
 IR Inten    --      9.6099                 9.5097                 0.2361

                     28                     29                     30
                      A                      A                      A
 Frequencies --    998.9043              1021.2385              1035.9542
 Red. masses --      1.2580                 5.9988                 2.4055
 Frc consts  --      0.7396                 3.6861                 1.5210
 IR Inten    --      0.3003                 0.0884                36.9989

                     31                     32                     33
                      A                      A                      A
 Frequencies --   1060.3268              1075.1212              1106.2625
 Red. masses --      2.3748                 1.6509                 1.9003
 Frc consts  --      1.5731                 1.1243                 1.3702
 IR Inten    --      3.2486                 0.5310                10.5558

                     34                     35                     36
                      A                      A                      A
 Frequencies --   1119.8638              1130.4617              1193.5327
 Red. masses --      1.9005                 2.0600                 1.0960
 Frc consts  --      1.4042                 1.5511                 0.9199
 IR Inten    --      0.4304                13.0923                 0.1621

                     37                     38                     39
                      A                      A                      A
 Frequencies --   1216.1441              1295.0942              1336.5880
 Red. masses --      1.1469                 2.7130                 3.0299
 Frc consts  --      0.9994                 2.6810                 3.1892
 IR Inten    --      3.4173                55.2130                15.6542

                     40                     41                     42
                      A                      A                      A
 Frequencies --   1349.1927              1370.4222              1397.1431
 Red. masses --      2.3563                 2.4466                 1.3511
 Frc consts  --      2.5272                 2.7072                 1.5539
 IR Inten    --      4.6178                 0.4738                22.4574

                     43                     44                     45
                      A                      A                      A
 Frequencies --   1417.8476              1493.3140              1503.7470
 Red. masses --      1.3012                 2.1962                 1.0977
 Frc consts  --      1.5411                 2.8855                 1.4625
 IR Inten    --     26.0854                 9.7101                 3.8045

                     46                     47                     48
                      A                      A                      A
 Frequencies --   1524.7733              1546.6452              1608.3524
 Red. masses --      1.0527                 2.2538                 1.4954
 Frc consts  --      1.4420                 3.1765                 2.2792
 IR Inten    --      8.6258                11.2733                50.8633

                     49                     50                     51
                      A                      A                      A
 Frequencies --   1633.8555              1658.4249              1678.3705
 Red. masses --      4.1907                 4.7791                 6.0730
 Frc consts  --      6.5912                 7.7445                10.0793
 IR Inten    --      6.6596                 7.3156                 0.9611

                     52                     53                     54
                      A                      A                      A
 Frequencies --   1715.4909              3050.8348              3106.0270
 Red. masses --      4.1403                 1.0434                 1.0968
 Frc consts  --      7.1790                 5.7217                 6.2345
 IR Inten    --    505.0125                17.4391                16.5148

                     55                     56                     57
                      A                      A                      A
 Frequencies --   3181.9311              3185.5339              3191.0328
 Red. masses --      1.0852                 1.0973                 1.0912
 Frc consts  --      6.4733                 6.5604                 6.5466
 IR Inten    --      1.2476                 3.0532                22.6946

                     58                     59                     60
                      A                      A                      A
 Frequencies --   3191.5591              3205.5164              3218.7112
 Red. masses --      1.0894                 1.0941                 1.0931
 Frc consts  --      6.5382                 6.6240                 6.6723
 IR Inten    --     16.9305                36.9954                16.8226

                     61                     62                     63
                      A                      A                      A
 Frequencies --   3230.1062              3556.7580              3686.0781
 Red. masses --      1.0919                 1.0465                 1.1004
 Frc consts  --      6.7120                 7.8002                 8.8092
 IR Inten    --      5.9506                17.7692                44.8705

 - Thermochemistry -
 -------------------
 Temperature   298.150 Kelvin.  Pressure   1.00000 Atm.
 Atom     1 has atomic number  6 and mass  12.00000

 Molecular mass:   161.09530 amu.
 Principal axes and moments of inertia in atomic units:
                           1         2         3
     Eigenvalues --   883.421653554.359494347.64035
           X            0.99998  -0.00557  -0.00029
           Y            0.00557   0.99996   0.00667
           Z            0.00026  -0.00667   0.99998
 This molecule is an asymmetric top.
 Rotational symmetry number  1.
 Warning -- assumption of classical behavior for rotation
           may cause significant error
 Rotational temperatures (Kelvin)      0.09804     0.02437     0.01992
 Rotational constants (GHZ):           2.04290     0.50775     0.41511
 Zero-point vibrational energy     499079.9 (Joules/Mol)
                                  119.28297 (Kcal/Mol)
 Warning -- explicit consideration of  15 degrees of freedom as
           vibrations may cause significant error
 Vibrational temperatures:     42.97    95.88   137.35   184.79   251.29
          (Kelvin)            301.95   387.73   480.41   514.24   582.11
                              599.90   614.44   673.36   784.85   837.12
                              913.71   926.86   967.97  1004.29  1021.12
                             1127.03  1169.32  1237.75  1343.67  1370.77
                             1383.78  1401.89  1437.20  1469.33  1490.51
                             1525.57  1546.86  1591.66  1611.23  1626.48
                             1717.23  1749.76  1863.35  1923.05  1941.19
                             1971.73  2010.18  2039.97  2148.55  2163.56
                             2193.81  2225.28  2314.06  2350.75  2386.10
                             2414.80  2468.21  4389.47  4468.88  4578.09
                             4583.27  4591.18  4591.94  4612.02  4631.01
                             4647.40  5117.38  5303.44

 Zero-point correction=                           0.190090 (Hartree/Particle)
 Thermal correction to Energy=                    0.201226
 Thermal correction to Enthalpy=                  0.202170
 Thermal correction to Gibbs Free Energy=         0.152168
 Sum of electronic and zero-point Energies=           -513.655156
 Sum of electronic and thermal Energies=              -513.644019
 Sum of electronic and thermal Enthalpies=            -513.643075
 Sum of electronic and thermal Free Energies=         -513.693077

                     E (Thermal)             CV                S
                      KCal/Mol        Cal/Mol-Kelvin    Cal/Mol-Kelvin
 Total                  126.271             42.355            105.238
 Electronic               0.000              0.000              0.000
 Translational            0.889              2.981             41.139
 Rotational               0.889              2.981             30.991
 Vibrational            124.494             36.393             33.108
 Vibration     1          0.594              1.984              5.838
 Vibration     2          0.598              1.970              4.250
 Vibration     3          0.603              1.952              3.545
 Vibration     4          0.611              1.925              2.969
 Vibration     5          0.627              1.874              2.385
 Vibration     6          0.642              1.826              2.045
 Vibration     7          0.674              1.729              1.600
 Vibration     8          0.715              1.608              1.241
 Vibration     9          0.733              1.560              1.133
 Vibration    10          0.770              1.460              0.946
 Vibration    11          0.780              1.433              0.902
 Vibration    12          0.789              1.411              0.868
 Vibration    13          0.825              1.321              0.743
 Vibration    14          0.901              1.150              0.554
 Vibration    15          0.939              1.071              0.482

                           ! Non-Optimized Parameters !

 1\1\GINC-NODE203\Freq\RB3LYP\6-31G(d)\C9H11N3\VSC10255\09-Dec-2020\0\\
 #N Geom=AllCheck Guess=TCheck SCRF=Check GenChk RB3LYP/6-31G(d) Freq\\
 CID_145026287_JID_2184_neutraal\\0,1\C,1.4612928062,-0.4195308556,-0.1
 615076028\C,0.7265954393,-0.4075870564,-1.4782194479\N,-0.1789309347,-
 1.2689518889,-1.8069909365\N,-0.4135906481,-2.2907649476,-0.8882611985
 \C,-1.5422037598,-2.8813340894,-1.1169314422\N,-2.4930548258,-2.505752
 2018,-2.021539141\C,1.0386961073,0.6511067096,-2.468737758\C,0.5556311
 812,0.5663433436,-3.7871589923\C,0.8426054725,1.5587336666,-4.71652358

 Normal termination of Gaussian 16 at Wed Dec  9 17:00:18 2020.

 ----------------------------------------------------------------------
 # B3LYP/6-311++G(d,p) empiricaldispersion=gd3bj scf=xqc pop=npa geom=c
 heck
 ----------------------------------------------------------------------

 ---------------------------------------
 CID_145026287_JID_2184_Energie_neutraal
 ---------------------------------------
 Structure from the checkpoint file:  "JID_2184.chk"
 Charge =  0 Multiplicity = 1

 SCF Done:  E(RB3LYP) =  -513.989982464     A.U. after   16 cycles
 Normal termination of Gaussian 16 at Wed Dec  9 17:02:34 2020.

 ----------------------------------------------------------------------
 # B3LYP/6-311++G(d,p) empiricaldispersion=gd3bj scf=xqc pop=npa geom=c
 heck
 ----------------------------------------------------------------------

 -------------------------------------
 CID_145026287_JID_2184_Energie_kation
 -------------------------------------
 Structure from the checkpoint file:  "JID_2184.chk"
 Charge =  1 Multiplicity = 2

 SCF Done:  E(UB3LYP) =  -513.708111812     A.U. after   27 cycles
 Normal termination of Gaussian 16 at Wed Dec  9 17:07:52 2020.
 Gaussian 16:  ES64L-G16RevA.03 25-Dec-2016

 ------------------------------------
 CID_145026287_JID_2184_Energie_anion
 ------------------------------------
 Structure from the checkpoint file:  "JID_2184.chk"
 Charge = -1 Multiplicity = 2

                         Standard orientation:
 ---------------------------------------------------------------------
 Center     Atomic      Atomic             Coordinates (Angstroms)
 Number     Number       Type             X           Y           Z
 ---------------------------------------------------------------------
      1          6           0        0.586818    2.320875   -0.078986
      2          6           0        0.428728    0.821624   -0.109093
      3          7           0        1.418234   -0.007038   -0.174015
      4          7           0        2.685989    0.561565   -0.286797
      5          6           0        3.613874   -0.291370    0.007073
      6          7           0        3.439734   -1.546617    0.514542
      7          6           0       -0.933849    0.238783   -0.053903
      8          6           0       -1.141619   -1.128041   -0.313508
      9          6           0       -2.416448   -1.678210   -0.258395
     10          6           0       -3.517865   -0.877422    0.059524
     11          6           0       -3.327536    0.478734    0.318401
     12          6           0       -2.048568    1.032278    0.259607
     13          1           0        1.619972    2.584321   -0.301921
     14          1           0        0.332907    2.716644    0.912703
     15          1           0       -0.083445    2.797933   -0.802002
     16          1           0        4.644626    0.037612   -0.109344
     17          1           0        4.179572   -2.221266    0.386313
     18          1           0        2.487613   -1.889902    0.451692
     19          1           0       -0.283990   -1.740478   -0.566690
     20          1           0       -2.556282   -2.735249   -0.468400
     21          1           0       -4.514247   -1.308447    0.101178
     22          1           0       -4.175232    1.111077    0.567455
     23          1           0       -1.920406    2.088872    0.468585
 ---------------------------------------------------------------------

 SCF Done:  E(UB3LYP) =  -513.988511496     A.U. after   33 cycles
 SCF Done:  E(UB3LYP) =  -513.988511496     a.u. after    1 cycles

 The electronic state is 2-A.
 Alpha  occ. eigenvalues --  -14.19236 -14.16531 -14.15174 -10.08318 -10.04031
 Alpha  occ. eigenvalues --  -10.03373 -10.03266 -10.02606 -10.02371 -10.02279
 Alpha  occ. eigenvalues --  -10.02201 -10.01914  -0.84128  -0.77301  -0.71373
 Alpha  occ. eigenvalues --   -0.67398  -0.60734  -0.60010  -0.57228  -0.49552
 Alpha  occ. eigenvalues --   -0.46207  -0.45402  -0.40751  -0.40415  -0.36801
 Alpha  occ. eigenvalues --   -0.34131  -0.31180  -0.30304  -0.29489  -0.29135
 Alpha  occ. eigenvalues --   -0.28158  -0.26766  -0.25064  -0.24371  -0.22902
 Alpha  occ. eigenvalues --   -0.20930  -0.19958  -0.19351  -0.17569  -0.12838
 Alpha  occ. eigenvalues --   -0.11731  -0.07788  -0.07295   0.05253
 Alpha virt. eigenvalues --    0.07294   0.08729   0.09658   0.10322   0.10616
 Alpha virt. eigenvalues --    0.12158   0.12448   0.13030   0.13445   0.14397
 Alpha virt. eigenvalues --    0.14701   0.15589   0.16030   0.16964   0.17249

  Beta  occ. eigenvalues --  -14.19164 -14.16634 -14.14829 -10.08071 -10.03796
  Beta  occ. eigenvalues --  -10.03406 -10.03318 -10.02515 -10.02297 -10.02116
  Beta  occ. eigenvalues --  -10.02062 -10.01788  -0.83807  -0.76960  -0.71098
  Beta  occ. eigenvalues --   -0.67106  -0.60462  -0.59653  -0.57050  -0.49054
  Beta  occ. eigenvalues --   -0.45995  -0.45137  -0.40646  -0.40212  -0.36631
  Beta  occ. eigenvalues --   -0.33821  -0.31001  -0.30196  -0.29272  -0.28610
  Beta  occ. eigenvalues --   -0.28106  -0.26592  -0.24469  -0.24252  -0.22220
  Beta  occ. eigenvalues --   -0.20699  -0.19740  -0.19037  -0.16746  -0.11820
  Beta  occ. eigenvalues --   -0.11167  -0.07477  -0.06154
  Beta virt. eigenvalues --    0.07821   0.08672   0.09602   0.10354   0.10418
  Beta virt. eigenvalues --    0.10568   0.12119   0.12647   0.13082   0.13396
  Beta virt. eigenvalues --    0.14531   0.14923   0.15788   0.16378   0.16940

 Mulliken charges and spin densities:
               1          2
     1  C   -0.456246  -0.061440
     2  C   -0.849206  -0.217135
     3  N   -0.037912   0.153647
     4  N   -0.164044  -0.019596
     5  C    0.156439  -0.079047
     6  N   -0.281641  -0.084582
     7  C    1.879314   0.327223
     8  C    0.515733   0.172242
     9  C   -0.482422  -0.023853
    10  C   -0.313418   0.184049
    11  C   -0.413692  -0.045069
    12  C   -1.550602   0.133787
    13  H    0.167700   0.004463
    14  H    0.064256   0.075558
    15  H    0.114248  -0.003786
    16  H   -0.080486   0.187649
    17  H   -0.031354   0.255804
    18  H    0.226378   0.038676
    19  H    0.148823  -0.017265
    20  H    0.100539   0.016580
    21  H    0.092336  -0.015848
    22  H    0.109523   0.007824
    23  H    0.085733   0.010119
 Sum of Mulliken charges =  -1.00000   1.00000

 Dipole moment (field-independent basis, Debye):
    X=             -1.8539    Y=              0.0202    Z=              0.0157  Tot=              1.8541
 Quadrupole moment (field-independent basis, Debye-Ang):
   XX=           -115.6020   YY=            -83.5932   ZZ=            -86.2115
   XY=             -1.5727   XZ=             -0.0999   YZ=              1.8808

 Summary of Natural Population Analysis:

                                       Natural Population
                Natural  -----------------------------------------------
    Atom  No    Charge         Core      Valence    Rydberg      Total
 -----------------------------------------------------------------------
      C    1   -0.32103      0.99964     2.31673    0.00466     3.32103
      C    2    0.16032      0.99958     1.82387    0.01623     2.83968
      N    3   -0.14212      0.99960     2.62680    0.01571     3.64212
      N    4   -0.22710      0.99969     2.71216    0.01525     3.72710
      C    5    0.17840      0.99970     1.80023    0.02166     2.82160
      N    6   -0.40455      0.99973     2.89447    0.01035     3.90455
      C    7   -0.01735      0.99948     2.00762    0.01025     3.01735
      C    8   -0.06213      0.99954     2.05356    0.00904     3.06213
      C    9   -0.12345      0.99957     2.11464    0.00924     3.12345
      C   10   -0.06931      0.99957     2.05969    0.01005     3.06931
      C   11   -0.12115      0.99958     2.11200    0.00958     3.12115
      C   12   -0.08330      0.99954     2.07618    0.00758     3.08330
      H   13    0.11615      0.00000     0.38268    0.00117     0.38385
      H   14    0.10031      0.00000     0.39804    0.00165     0.39969
      H   15    0.09811      0.00000     0.40093    0.00095     0.40189
      H   16    0.07188      0.00000     0.42682    0.00129     0.42812
      H   17    0.18306      0.00000     0.31528    0.00166     0.31694
      H   18    0.20107      0.00000     0.29670    0.00223     0.29893
      H   19    0.10356      0.00000     0.39499    0.00145     0.39644
      H   20    0.08984      0.00000     0.40917    0.00099     0.41016
      H   21    0.08610      0.00000     0.41284    0.00106     0.41390
      H   22    0.08925      0.00000     0.40968    0.00106     0.41075
      H   23    0.09341      0.00000     0.40543    0.00116     0.40659
 =======================================================================
   * Total *   -0.00000     11.99522    30.85050    0.15428    43.00000

 Normal termination of Gaussian 16 at Wed Dec  9 17:14:52 2020.
