 Gaussian 16, Revision A.03,

 -----------------------------------------------------------
 # opt freq B3LYP/6-31G(d) empiricaldispersion=gd3bj scf=xqc
 -----------------------------------------------------------

 -----------------------------
 CID_4647011_JID_3047_neutraal
 -----------------------------
 Symbolic Z-matrix:
 Charge =  0 Multiplicity = 1

 SCF Done:  E(RB3LYP) =  -610.106880768     A.U. after   14 cycles
 SCF Done:  E(RB3LYP) =  -610.111741242     A.U. after   13 cycles
 SCF Done:  E(RB3LYP) =  -610.112516623     A.U. after   12 cycles
 SCF Done:  E(RB3LYP) =  -610.112654295     A.U. after   12 cycles
 SCF Done:  E(RB3LYP) =  -610.112713507     A.U. after   11 cycles
 SCF Done:  E(RB3LYP) =  -610.112733166     A.U. after   10 cycles
 SCF Done:  E(RB3LYP) =  -610.112743450     A.U. after   10 cycles
 SCF Done:  E(RB3LYP) =  -610.112749492     A.U. after   10 cycles
 SCF Done:  E(RB3LYP) =  -610.112753549     A.U. after    9 cycles
 SCF Done:  E(RB3LYP) =  -610.112754499     A.U. after    8 cycles
 SCF Done:  E(RB3LYP) =  -610.112755302     A.U. after    8 cycles
 SCF Done:  E(RB3LYP) =  -610.112756322     A.U. after    8 cycles
 SCF Done:  E(RB3LYP) =  -610.112756760     A.U. after    8 cycles
 SCF Done:  E(RB3LYP) =  -610.112757004     A.U. after    8 cycles
 SCF Done:  E(RB3LYP) =  -610.112757148     A.U. after    8 cycles
 Optimization completed.
    -- Stationary point found.
 Normal termination of Gaussian 16 at Wed Dec  9 22:23:47 2020.

 --------------------------------------------------------------------
 #N Geom=AllCheck Guess=TCheck SCRF=Check GenChk RB3LYP/6-31G(d) Freq
 --------------------------------------------------------------------

 Structure from the checkpoint file:  "JID_3047.chk"
 -----------------------------
 CID_4647011_JID_3047_neutraal
 -----------------------------
 Charge =  0 Multiplicity = 1

 SCF Done:  E(RB3LYP) =  -610.112757148     A.U. after    1 cycles

  Exact polarizability: 126.093   4.752 114.337 -23.975   8.138  82.665
 Approx polarizability: 181.247   3.161 185.233 -51.985  20.358 137.750

                      1                      2                      3
                      A                      A                      A
 Frequencies --     34.3005                37.4529                87.5530
 Red. masses --      4.1188                 5.2638                 4.0452
 Frc consts  --      0.0029                 0.0044                 0.0183
 IR Inten    --      0.3779                 0.4485                 0.5387

                      4                      5                      6
                      A                      A                      A
 Frequencies --     92.6524                97.5266               150.8274
 Red. masses --      2.7050                 1.2568                 4.0179
 Frc consts  --      0.0137                 0.0070                 0.0539
 IR Inten    --      0.5872                 0.3043                 0.4723

                      7                      8                      9
                      A                      A                      A
 Frequencies --    232.3860               259.2809               299.1298
 Red. masses --      4.9270                 5.8679                 3.5094
 Frc consts  --      0.1568                 0.2324                 0.1850
 IR Inten    --      4.3743                 0.6302                 0.4062

                     10                     11                     12
                      A                      A                      A
 Frequencies --    336.3717               367.4752               397.7478
 Red. masses --      5.8809                 3.0523                 1.9216
 Frc consts  --      0.3920                 0.2428                 0.1791
 IR Inten    --      5.6809                16.7852                13.9646

                     13                     14                     15
                      A                      A                      A
 Frequencies --    414.4419               424.7210               458.0525
 Red. masses --      3.0452                 1.5491                 5.0023
 Frc consts  --      0.3082                 0.1646                 0.6184
 IR Inten    --      5.3729                53.4734                18.8820

                     16                     17                     18
                      A                      A                      A
 Frequencies --    500.6251               539.8953               574.5244
 Red. masses --      1.1626                 2.7357                 2.6445
 Frc consts  --      0.1717                 0.4698                 0.5143
 IR Inten    --    135.5248                 7.7912                 6.4030

                     19                     20                     21
                      A                      A                      A
 Frequencies --    633.3774               650.0124               667.9913
 Red. masses --      4.9984                 4.9642                 3.8109
 Frc consts  --      1.1814                 1.2358                 1.0019
 IR Inten    --      4.1629                13.9596                13.0768

                     22                     23                     24
                      A                      A                      A
 Frequencies --    768.6585               790.3268               798.9182
 Red. masses --      1.7736                 2.6143                 2.9949
 Frc consts  --      0.6174                 0.9621                 1.1263
 IR Inten    --     11.8220                17.2329                17.1350

                     25                     26                     27
                      A                      A                      A
 Frequencies --    843.9517               911.0725               954.1378
 Red. masses --      3.7065                 1.3115                 2.9323
 Frc consts  --      1.5554                 0.6414                 1.5728
 IR Inten    --      8.4999                 2.5785                37.9179

                     28                     29                     30
                      A                      A                      A
 Frequencies --    976.6611               994.3843              1006.8679
 Red. masses --      1.4551                 2.9391                 2.1405
 Frc consts  --      0.8178                 1.7123                 1.2785
 IR Inten    --      2.5392                73.2937                 1.3008

                     31                     32                     33
                      A                      A                      A
 Frequencies --   1009.3007              1020.0862              1062.8853
 Red. masses --      1.2962                 6.8437                 1.6809
 Frc consts  --      0.7780                 4.1958                 1.1188
 IR Inten    --      0.1231                 6.5419                41.0968

                     34                     35                     36
                      A                      A                      A
 Frequencies --   1069.9986              1077.7877              1106.5375
 Red. masses --      2.4004                 2.4098                 3.7987
 Frc consts  --      1.6192                 1.6493                 2.7404
 IR Inten    --     11.8087                23.2951                99.8045

                     37                     38                     39
                      A                      A                      A
 Frequencies --   1131.4117              1187.2943              1188.6154
 Red. masses --      1.5680                 1.1477                 1.2510
 Frc consts  --      1.1826                 0.9532                 1.0414
 IR Inten    --     13.1110                 5.8484                10.9212

                     40                     41                     42
                      A                      A                      A
 Frequencies --   1239.9520              1264.9497              1292.5898
 Red. masses --      2.0650                 1.5216                 2.3669
 Frc consts  --      1.8706                 1.4345                 2.3300
 IR Inten    --      3.0937                 4.1331                36.7766

                     43                     44                     45
                      A                      A                      A
 Frequencies --   1320.9941              1335.9431              1362.0641
 Red. masses --      2.7465                 1.5550                 1.3257
 Frc consts  --      2.8238                 1.6352                 1.4490
 IR Inten    --      7.1689                15.0111                 3.1534

                     46                     47                     48
                      A                      A                      A
 Frequencies --   1369.7193              1407.6854              1430.9090
 Red. masses --      1.5241                 1.3572                 1.2477
 Frc consts  --      1.6847                 1.5846                 1.5052
 IR Inten    --      7.5815                54.6008                13.0437

                     49                     50                     51
                      A                      A                      A
 Frequencies --   1466.7944              1496.0526              1505.4384
 Red. masses --      1.5367                 1.6659                 1.0602
 Frc consts  --      1.9479                 2.1968                 1.4157
 IR Inten    --    109.2516                66.0957                10.7713

                     52                     53                     54
                      A                      A                      A
 Frequencies --   1508.2966              1513.0179              1526.8849
 Red. masses --      1.1357                 1.0812                 2.1937
 Frc consts  --      1.5223                 1.4583                 3.0133
 IR Inten    --      3.3260                14.6865                12.5256

                     55                     56                     57
                      A                      A                      A
 Frequencies --   1634.2528              1655.2111              1732.3530
 Red. masses --      6.0445                 5.4243                 6.8937
 Frc consts  --      9.5115                 8.7558                12.1892
 IR Inten    --     17.7712                31.2650                 4.1994

                     58                     59                     60
                      A                      A                      A
 Frequencies --   3056.1988              3067.6108              3077.2605
 Red. masses --      1.0417                 1.0749                 1.0721
 Frc consts  --      5.7326                 5.9594                 5.9817
 IR Inten    --      7.5292                 4.0788                28.7793

                     61                     62                     63
                      A                      A                      A
 Frequencies --   3121.3194              3132.6423              3157.5499
 Red. masses --      1.0926                 1.1038                 1.1042
 Frc consts  --      6.2715                 6.3821                 6.4861
 IR Inten    --     12.6666                14.4554                 9.7220

                     64                     65                     66
                      A                      A                      A
 Frequencies --   3179.8738              3197.2897              3215.1070
 Red. masses --      1.0892                 1.0883                 1.0925
 Frc consts  --      6.4887                 6.5551                 6.6539
 IR Inten    --     20.8491                 7.5011                16.0498

                     67                     68                     69
                      A                      A                      A
 Frequencies --   3221.7270              3619.9902              3762.3532
 Red. masses --      1.0979                 1.0647                 1.0676
 Frc consts  --      6.7144                 8.2202                 8.9041
 IR Inten    --     10.2792                80.5006                68.0231

 - Thermochemistry -
 -------------------
 Temperature   298.150 Kelvin.  Pressure   1.00000 Atm.
 Atom     1 has atomic number  6 and mass  12.00000

 Molecular mass:   180.08988 amu.
 Principal axes and moments of inertia in atomic units:
                           1         2         3
     Eigenvalues --  1556.181802984.206083885.48757
           X            0.99993   0.01164  -0.00095
           Y           -0.01163   0.99992   0.00470
           Z            0.00100  -0.00469   0.99999
 This molecule is an asymmetric top.
 Rotational symmetry number  1.
 Warning -- assumption of classical behavior for rotation
           may cause significant error
 Rotational temperatures (Kelvin)      0.05566     0.02902     0.02229
 Rotational constants (GHZ):           1.15972     0.60476     0.46448
 Zero-point vibrational energy     538482.7 (Joules/Mol)
                                  128.70045 (Kcal/Mol)
 Warning -- explicit consideration of  18 degrees of freedom as
           vibrations may cause significant error
 Vibrational temperatures:     49.35    53.89   125.97   133.31   140.32
          (Kelvin)            217.01   334.35   373.05   430.38   483.96
                              528.71   572.27   596.29   611.08   659.04
                              720.29   776.79   826.61   911.29   935.22
                              961.09  1105.93  1137.10  1149.47  1214.26
                             1310.83  1372.79  1405.20  1430.70  1448.66
                             1452.16  1467.68  1529.25  1539.49  1550.70
                             1592.06  1627.85  1708.25  1710.15  1784.01
                             1819.98  1859.75  1900.62  1922.12  1959.71
                             1970.72  2025.35  2058.76  2110.39  2152.49
                             2165.99  2170.10  2176.90  2196.85  2351.33
                             2381.48  2492.47  4397.19  4413.61  4427.49
                             4490.88  4507.17  4543.01  4575.13  4600.19
                             4625.82  4635.35  5208.36  5413.19

 Zero-point correction=                           0.205097 (Hartree/Particle)
 Thermal correction to Energy=                    0.217707
 Thermal correction to Enthalpy=                  0.218651
 Thermal correction to Gibbs Free Energy=         0.164929
 Sum of electronic and zero-point Energies=           -609.907660
 Sum of electronic and thermal Energies=              -609.895050
 Sum of electronic and thermal Enthalpies=            -609.894106
 Sum of electronic and thermal Free Energies=         -609.947828

                     E (Thermal)             CV                S
                      KCal/Mol        Cal/Mol-Kelvin    Cal/Mol-Kelvin
 Total                  136.613             47.044            113.067
 Electronic               0.000              0.000              0.000
 Translational            0.889              2.981             41.472
 Rotational               0.889              2.981             31.268
 Vibrational            134.836             41.082             40.328
 Vibration     1          0.594              1.983              5.564
 Vibration     2          0.594              1.982              5.389
 Vibration     3          0.601              1.958              3.714
 Vibration     4          0.602              1.954              3.603
 Vibration     5          0.603              1.951              3.503
 Vibration     6          0.618              1.902              2.662
 Vibration     7          0.653              1.791              1.860
 Vibration     8          0.668              1.747              1.667
 Vibration     9          0.692              1.675              1.422
 Vibration    10          0.717              1.603              1.229
 Vibration    11          0.740              1.539              1.090
 Vibration    12          0.764              1.475              0.971
 Vibration    13          0.778              1.439              0.911
 Vibration    14          0.787              1.416              0.876
 Vibration    15          0.816              1.343              0.772
 Vibration    16          0.856              1.249              0.657
 Vibration    17          0.895              1.162              0.566
 Vibration    18          0.931              1.086              0.496

 Optimization completed.
    -- Stationary point found.
 Normal termination of Gaussian 16 at Wed Dec  9 22:30:16 2020.

 ----------------------------------------------------------------------
 # B3LYP/6-311++G(d,p) empiricaldispersion=gd3bj scf=xqc pop=npa geom=c
 heck
 ----------------------------------------------------------------------

 -------------------------------------
 CID_4647011_JID_3047_Energie_neutraal
 -------------------------------------
 Structure from the checkpoint file:  "JID_3047.chk"
 Charge =  0 Multiplicity = 1

 SCF Done:  E(RB3LYP) =  -610.299503320     A.U. after   15 cycles
 Normal termination of Gaussian 16 at Wed Dec  9 22:32:38 2020.

 ----------------------------------------------------------------------
 # B3LYP/6-311++G(d,p) empiricaldispersion=gd3bj scf=xqc pop=npa geom=c
 heck
 ----------------------------------------------------------------------

 -----------------------------------
 CID_4647011_JID_3047_Energie_kation
 -----------------------------------
 Structure from the checkpoint file:  "JID_3047.chk"
 Charge =  1 Multiplicity = 2

 SCF Done:  E(UB3LYP) =  -609.978890356     A.U. after   27 cycles
 Normal termination of Gaussian 16 at Wed Dec  9 22:37:53 2020.
 Gaussian 16:  ES64L-G16RevA.03 25-Dec-2016

 ----------------------------------------------------------------------
 # B3LYP/6-311++G(d,p) empiricaldispersion=gd3bj scf=xqc pop=npa geom=c
 heck
 ----------------------------------------------------------------------

 ----------------------------------
 CID_4647011_JID_3047_Energie_anion
 ----------------------------------
 Structure from the checkpoint file:  "JID_3047.chk"
 Charge = -1 Multiplicity = 2

                         Standard orientation:
 ---------------------------------------------------------------------
 Center     Atomic      Atomic             Coordinates (Angstroms)
 Number     Number       Type             X           Y           Z
 ---------------------------------------------------------------------
      1          6           0        1.463262   -1.005250    1.431146
      2          6           0        1.871741    0.089601    0.481203
      3          7           0        2.782286   -0.039804   -0.413081
      4          8           0        3.343170   -1.338917   -0.391816
      5          6           0        1.169843    1.425265    0.512023
      6          6           0        0.024461    1.538119   -0.533190
      7          6           0       -0.971085    0.401005   -0.379143
      8          6           0       -0.806455   -0.838325   -1.003599
      9          6           0       -1.742476   -1.839069   -0.757434
     10          6           0       -2.812397   -1.568602    0.096566
     11          6           0       -2.898203   -0.298970    0.664588
     12          7           0       -2.000310    0.666575    0.437098
     13          8           0       -0.620871    2.786332   -0.407881
     14          1           0        1.352611   -1.956301    0.903291
     15          1           0        0.524781   -0.759250    1.932768
     16          1           0        2.240607   -1.150638    2.191945
     17          1           0        4.011071   -1.276337   -1.091573
     18          1           0        0.736406    1.597614    1.503305
     19          1           0        1.874702    2.233923    0.302091
     20          1           0        0.479651    1.488333   -1.528796
     21          1           0        0.043992   -1.007831   -1.656048
     22          1           0       -1.642776   -2.813121   -1.227928
     23          1           0       -3.566182   -2.318615    0.313373
     24          1           0       -3.720655   -0.041753    1.328906
     25          1           0       -1.378584    2.614613    0.185159
 ---------------------------------------------------------------------

 SCF Done:  E(UB3LYP) =  -610.291400359     A.U. after   33 cycles
 SCF Done:  E(UB3LYP) =  -610.291400359     a.u. after    1 cycles

 The electronic state is 2-A.
 Alpha  occ. eigenvalues --  -19.04637 -18.99980 -14.24089 -14.17133 -10.10971
 Alpha  occ. eigenvalues --  -10.09999 -10.08015 -10.07701 -10.06274 -10.05743
 Alpha  occ. eigenvalues --  -10.05210 -10.04888 -10.04634  -0.96414  -0.91070
 Alpha  occ. eigenvalues --   -0.81445  -0.76268  -0.67335  -0.66200  -0.62340
 Alpha  occ. eigenvalues --   -0.60732  -0.53524  -0.50671  -0.48035  -0.43650
 Alpha  occ. eigenvalues --   -0.41412  -0.38426  -0.37006  -0.36294  -0.35852
 Alpha  occ. eigenvalues --   -0.34040  -0.32935  -0.31875  -0.30032  -0.29366
 Alpha  occ. eigenvalues --   -0.28426  -0.27289  -0.26559  -0.26237  -0.25999
 Alpha  occ. eigenvalues --   -0.24973  -0.21189  -0.17533  -0.16705  -0.16304
 Alpha  occ. eigenvalues --   -0.14372  -0.13923  -0.13188   0.05082
 Alpha virt. eigenvalues --    0.07008   0.07611   0.08619   0.09345   0.09900
 Alpha virt. eigenvalues --    0.10285   0.10454   0.11237   0.11977   0.12602
 Alpha virt. eigenvalues --    0.12660   0.13050   0.14154   0.15477   0.16586

  Beta  occ. eigenvalues --  -19.04594 -18.99974 -14.24054 -14.16762 -10.10978
  Beta  occ. eigenvalues --  -10.09995 -10.07963 -10.07624 -10.06264 -10.05719
  Beta  occ. eigenvalues --  -10.05226 -10.04877 -10.04310  -0.96325  -0.91048
  Beta  occ. eigenvalues --   -0.80952  -0.76190  -0.66845  -0.66051  -0.62209
  Beta  occ. eigenvalues --   -0.60668  -0.53390  -0.50421  -0.47720  -0.43564
  Beta  occ. eigenvalues --   -0.41278  -0.38363  -0.36896  -0.36189  -0.35781
  Beta  occ. eigenvalues --   -0.33905  -0.32822  -0.31774  -0.29937  -0.29229
  Beta  occ. eigenvalues --   -0.28210  -0.27140  -0.26324  -0.26126  -0.25671
  Beta  occ. eigenvalues --   -0.24724  -0.21101  -0.17435  -0.16276  -0.15044
  Beta  occ. eigenvalues --   -0.14077  -0.13537  -0.12790
  Beta virt. eigenvalues --    0.07555   0.08184   0.08893   0.09659   0.09857
  Beta virt. eigenvalues --    0.09986   0.10503   0.10765   0.11330   0.11948
  Beta virt. eigenvalues --    0.12595   0.12762   0.12957   0.14283   0.15410

 Mulliken charges and spin densities:
               1          2
     1  C   -0.473492  -0.313098
     2  C    0.149911   0.113014
     3  N   -0.269086   0.104456
     4  O   -0.080584  -0.019634
     5  C    0.467398  -0.656423
     6  C   -0.533000  -0.237146
     7  C    0.551126  -0.512712
     8  C   -1.004534   1.131736
     9  C    0.208656  -0.525202
    10  C    0.257694  -0.366632
    11  C   -0.226790   0.099507
    12  N   -0.091792   0.211588
    13  O   -0.185618   0.001842
    14  H    0.231758  -0.049391
    15  H   -0.013195   0.166851
    16  H   -0.191280   0.367581
    17  H   -0.194576   0.470804
    18  H    0.207197  -0.046134
    19  H    0.038789   0.150556
    20  H    0.211574   0.001708
    21  H    0.001859   0.162234
    22  H   -0.196673   0.334887
    23  H   -0.156125   0.295973
    24  H    0.034379   0.105128
    25  H    0.256403   0.008510
 Sum of Mulliken charges =  -1.00000   1.00000

 Dipole moment (field-independent basis, Debye):
    X=             -1.6879    Y=              1.4857    Z=              1.2606  Tot=              2.5778
 Quadrupole moment (field-independent basis, Debye-Ang):
   XX=           -130.3979   YY=           -111.6402   ZZ=            -97.7759
   XY=              2.5163   XZ=              1.5599   YZ=              0.6383

 Summary of Natural Population Analysis:

                                       Natural Population
                Natural  -----------------------------------------------
    Atom  No    Charge         Core      Valence    Rydberg      Total
 -----------------------------------------------------------------------
      C    1   -0.31955      0.99961     2.31391    0.00603     3.31955
      C    2    0.11927      0.99962     1.86402    0.01709     2.88073
      N    3   -0.09428      0.99958     2.58050    0.01420     3.59428
      O    4   -0.29154      0.99990     3.28459    0.00705     4.29154
      C    5   -0.21087      0.99956     2.20037    0.01093     3.21087
      C    6    0.05977      0.99951     1.92547    0.01525     2.94023
      C    7    0.10286      0.99952     1.88313    0.01449     2.89714
      C    8   -0.12511      0.99951     2.11654    0.00906     3.12511
      C    9   -0.02894      0.99957     2.01882    0.01055     3.02894
      C   10   -0.13517      0.99956     2.12656    0.00905     3.13517
      C   11    0.03761      0.99960     1.94696    0.01584     2.96239
      N   12   -0.22475      0.99965     2.71278    0.01233     3.72475
      O   13   -0.37779      0.99990     3.37193    0.00596     4.37779
      H   14    0.11699      0.00000     0.38189    0.00112     0.38301
      H   15    0.10746      0.00000     0.39157    0.00098     0.39254
      H   16    0.11032      0.00000     0.38860    0.00108     0.38968
      H   17    0.23538      0.00000     0.25367    0.01095     0.26462
      H   18    0.10165      0.00000     0.39707    0.00128     0.39835
      H   19    0.10941      0.00000     0.38940    0.00119     0.39059
      H   20    0.08746      0.00000     0.41066    0.00189     0.41254
      H   21    0.10390      0.00000     0.39450    0.00160     0.39610
      H   22    0.09387      0.00000     0.40524    0.00088     0.40613
      H   23    0.09811      0.00000     0.40102    0.00087     0.40189
      H   24    0.08330      0.00000     0.41571    0.00099     0.41670
      H   25    0.24065      0.00000     0.25628    0.00307     0.25935
 =======================================================================
   * Total *   -0.00000     12.99508    34.83118    0.17373    48.00000

 Normal termination of Gaussian 16 at Wed Dec  9 22:44:51 2020.
