 Gaussian 16, Revision A.03,

 -----------------------------------------------------------
 # opt freq B3LYP/6-31G(d) empiricaldispersion=gd3bj scf=xqc
 -----------------------------------------------------------

 ------------------------------
 CID_62520439_JID_8647_neutraal
 ------------------------------
 Symbolic Z-matrix:
 Charge =  0 Multiplicity = 1

 SCF Done:  E(RB3LYP) =  -832.527525924     A.U. after   16 cycles
 SCF Done:  E(RB3LYP) =  -832.537159573     A.U. after   13 cycles
 SCF Done:  E(RB3LYP) =  -832.538469629     A.U. after   13 cycles
 SCF Done:  E(RB3LYP) =  -832.538650093     A.U. after   13 cycles
 SCF Done:  E(RB3LYP) =  -832.539045946     A.U. after   12 cycles
 SCF Done:  E(RB3LYP) =  -832.539076075     A.U. after   11 cycles
 SCF Done:  E(RB3LYP) =  -832.539093613     A.U. after   10 cycles
 SCF Done:  E(RB3LYP) =  -832.539101680     A.U. after    9 cycles
 SCF Done:  E(RB3LYP) =  -832.539103711     A.U. after    9 cycles
 SCF Done:  E(RB3LYP) =  -832.539104425     A.U. after    8 cycles
 SCF Done:  E(RB3LYP) =  -832.539104821     A.U. after    8 cycles
 SCF Done:  E(RB3LYP) =  -832.539104993     A.U. after    8 cycles
 SCF Done:  E(RB3LYP) =  -832.539105138     A.U. after    7 cycles
 SCF Done:  E(RB3LYP) =  -832.539105235     A.U. after    7 cycles
 Optimization completed.
    -- Stationary point found.
 Normal termination of Gaussian 16 at Fri Dec 11 20:48:57 2020.

 --------------------------------------------------------------------
 #N Geom=AllCheck Guess=TCheck SCRF=Check GenChk RB3LYP/6-31G(d) Freq
 --------------------------------------------------------------------

 Structure from the checkpoint file:  "JID_8647.chk"
 ------------------------------
 CID_62520439_JID_8647_neutraal
 ------------------------------
 Charge =  0 Multiplicity = 1

 SCF Done:  E(RB3LYP) =  -832.539105235     A.U. after    1 cycles

  Exact polarizability: 200.192  -1.720 145.718  -6.697 -18.771 115.822
 Approx polarizability: 303.287  -7.556 259.924 -16.916 -52.619 178.153

                      1                      2                      3
                      A                      A                      A
 Frequencies --     24.7844                40.3342                86.8179
 Red. masses --      5.6644                 5.9910                 3.9367
 Frc consts  --      0.0021                 0.0057                 0.0175
 IR Inten    --      0.1432                 0.3334                 1.1267

                      4                      5                      6
                      A                      A                      A
 Frequencies --    109.6446               128.3619               160.1773
 Red. masses --      4.3422                 3.7702                 5.3215
 Frc consts  --      0.0308                 0.0366                 0.0804
 IR Inten    --      1.1634                 2.1396                 2.2604

                      7                      8                      9
                      A                      A                      A
 Frequencies --    190.4620               209.7124               233.7189
 Red. masses --      3.3642                 6.4717                 2.9212
 Frc consts  --      0.0719                 0.1677                 0.0940
 IR Inten    --      4.0780                 5.9523                 8.2535

                     10                     11                     12
                      A                      A                      A
 Frequencies --    243.7437               289.1171               300.6993
 Red. masses --      3.2095                 4.0514                 1.9711
 Frc consts  --      0.1123                 0.1995                 0.1050
 IR Inten    --      1.9252                 2.8495                26.0719

                     13                     14                     15
                      A                      A                      A
 Frequencies --    309.9929               355.5461               361.6356
 Red. masses --      1.5137                 2.1277                 2.3905
 Frc consts  --      0.0857                 0.1585                 0.1842
 IR Inten    --    112.2296                17.0109                 0.0976

                     16                     17                     18
                      A                      A                      A
 Frequencies --    392.9197               439.2581               469.8637
 Red. masses --      2.8737                 2.9570                 3.5591
 Frc consts  --      0.2614                 0.3362                 0.4630
 IR Inten    --      5.3867                 3.6834                 2.4469

                     19                     20                     21
                      A                      A                      A
 Frequencies --    495.7787               508.3070               515.2217
 Red. masses --      1.4992                 2.6702                 1.9226
 Frc consts  --      0.2171                 0.4065                 0.3007
 IR Inten    --     87.9690                18.4642                 0.9887

                     22                     23                     24
                      A                      A                      A
 Frequencies --    578.3740               582.1108               628.3545
 Red. masses --      6.2710                 6.5280                 3.2035
 Frc consts  --      1.2360                 1.3033                 0.7452
 IR Inten    --      1.1382                12.3798                10.0819

                     25                     26                     27
                      A                      A                      A
 Frequencies --    650.3666               660.4135               712.7030
 Red. masses --      5.4900                 7.5147                12.3906
 Frc consts  --      1.3682                 1.9310                 3.7082
 IR Inten    --      7.8287                 3.6366                 0.2426

                     28                     29                     30
                      A                      A                      A
 Frequencies --    761.3473               767.3686               783.5782
 Red. masses --      5.6248                 3.1500                 4.4844
 Frc consts  --      1.9210                 1.0929                 1.6222
 IR Inten    --      0.2792                 0.4759                 0.1607

                     31                     32                     33
                      A                      A                      A
 Frequencies --    801.3578               830.8085               849.4324
 Red. masses --      1.5627                 1.2987                 3.0138
 Frc consts  --      0.5912                 0.5282                 1.2812
 IR Inten    --      2.6730                27.3803                 0.6229

                     34                     35                     36
                      A                      A                      A
 Frequencies --    866.6631               876.7517               889.0859
 Red. masses --      2.8463                 1.8290                 1.4086
 Frc consts  --      1.2596                 0.8284                 0.6560
 IR Inten    --      4.5631                 3.8538                 2.4252

                     37                     38                     39
                      A                      A                      A
 Frequencies --    912.6713               935.9833               959.0734
 Red. masses --      2.6411                 2.2836                 1.4661
 Frc consts  --      1.2962                 1.1787                 0.7946
 IR Inten    --     13.3766                 3.7213                 1.6755

                     40                     41                     42
                      A                      A                      A
 Frequencies --    978.4597              1018.8556              1033.2551
 Red. masses --      2.1484                 1.7746                12.1869
 Frc consts  --      1.2119                 1.0854                 7.6658
 IR Inten    --      6.2685                39.0005                 2.6709

                     43                     44                     45
                      A                      A                      A
 Frequencies --   1060.4099              1078.7012              1095.6048
 Red. masses --      1.9812                 3.1639                 1.7978
 Frc consts  --      1.3126                 2.1690                 1.2714
 IR Inten    --      8.2192                47.5680                23.1434

                     46                     47                     48
                      A                      A                      A
 Frequencies --   1102.3101              1131.9302              1137.5625
 Red. masses --      1.8633                 3.0840                 8.2245
 Frc consts  --      1.3340                 2.3281                 6.2706
 IR Inten    --      9.9678                 3.3814                46.7227

                     49                     50                     51
                      A                      A                      A
 Frequencies --   1152.0844              1167.1126              1178.3254
 Red. masses --      7.6779                 2.7805                 1.5535
 Frc consts  --      6.0043                 2.2315                 1.2709
 IR Inten    --      4.5263                 2.5970                 3.3183

                     52                     53                     54
                      A                      A                      A
 Frequencies --   1192.9380              1195.8021              1233.0699
 Red. masses --      1.6113                 1.8039                 2.0537
 Frc consts  --      1.3510                 1.5198                 1.8397
 IR Inten    --     16.0730                 4.6088                18.0375

                     55                     56                     57
                      A                      A                      A
 Frequencies --   1267.2998              1285.7189              1310.5698
 Red. masses --      1.9152                 5.6780                 1.3477
 Frc consts  --      1.8123                 5.5301                 1.3639
 IR Inten    --     22.4363                 8.9008                 7.3647

                     58                     59                     60
                      A                      A                      A
 Frequencies --   1317.6195              1330.7304              1348.7595
 Red. masses --      1.2693                 1.5081                 2.1036
 Frc consts  --      1.2984                 1.5735                 2.2547
 IR Inten    --     12.2222                26.0576                52.2234

                     61                     62                     63
                      A                      A                      A
 Frequencies --   1363.7644              1372.1554              1385.6287
 Red. masses --      2.1611                 1.9058                 2.7463
 Frc consts  --      2.3681                 2.1141                 3.1066
 IR Inten    --     10.5643                16.3335                25.6142

                     64                     65                     66
                      A                      A                      A
 Frequencies --   1390.3334              1398.9153              1406.3342
 Red. masses --      1.4688                 1.4486                 1.4452
 Frc consts  --      1.6729                 1.6702                 1.6840
 IR Inten    --      3.3347                 7.7604                 0.7140

                     67                     68                     69
                      A                      A                      A
 Frequencies --   1412.4515              1416.4390              1427.0231
 Red. masses --      1.4097                 1.4050                 1.6267
 Frc consts  --      1.6570                 1.6608                 1.9517
 IR Inten    --     10.1005                16.5731                44.4797

                     70                     71                     72
                      A                      A                      A
 Frequencies --   1446.5621              1512.1130              1515.2861
 Red. masses --      1.5869                 1.0907                 1.0962
 Frc consts  --      1.9565                 1.4694                 1.4829
 IR Inten    --     37.5872                 1.3747                 0.1241

                     73                     74                     75
                      A                      A                      A
 Frequencies --   1517.0558              1522.5164              1527.6953
 Red. masses --      1.1264                 1.0977                 1.0927
 Frc consts  --      1.5274                 1.4992                 1.5025
 IR Inten    --      9.3186                 0.9130                10.6191

                     76                     77                     78
                      A                      A                      A
 Frequencies --   1535.2861              1538.4701              1550.5212
 Red. masses --      1.3995                 2.3107                 2.5362
 Frc consts  --      1.9436                 3.2224                 3.5924
 IR Inten    --     12.4775               118.9569                 5.1001

                     79                     80                     81
                      A                      A                      A
 Frequencies --   1621.9571              1655.6163              3019.6059
 Red. masses --      2.6803                 6.5205                 1.0707
 Frc consts  --      4.1545                10.5305                 5.7519
 IR Inten    --    425.3333               140.2967                36.6326

                     82                     83                     84
                      A                      A                      A
 Frequencies --   3025.1289              3033.0488              3046.9255
 Red. masses --      1.0686                 1.0604                 1.0701
 Frc consts  --      5.7617                 5.7477                 5.8532
 IR Inten    --     24.0474                23.3141                34.3506

                     85                     86                     87
                      A                      A                      A
 Frequencies --   3049.9427              3054.5528              3073.9910
 Red. masses --      1.0652                 1.0607                 1.0998
 Frc consts  --      5.8380                 5.8309                 6.1232
 IR Inten    --      5.6101                22.6683                36.1896

                     88                     89                     90
                      A                      A                      A
 Frequencies --   3084.9938              3091.4684              3097.3478
 Red. masses --      1.0927                 1.1041                 1.1034
 Frc consts  --      6.1273                 6.2169                 6.2368
 IR Inten    --     53.7265                27.5659                77.0951

                     91                     92                     93
                      A                      A                      A
 Frequencies --   3112.1441              3124.1997              3223.0237
 Red. masses --      1.0931                 1.0937                 1.0919
 Frc consts  --      6.2380                 6.2898                 6.6829
 IR Inten    --     27.1972                37.9757                 3.3238

                     94                     95                     96
                      A                      A                      A
 Frequencies --   3256.9662              3567.5278              3761.1457
 Red. masses --      1.0899                 1.0759                 1.0664
 Frc consts  --      6.8119                 8.0676                 8.8877
 IR Inten    --     17.2248                40.3117                18.6504

 - Thermochemistry -
 -------------------
 Temperature   298.150 Kelvin.  Pressure   1.00000 Atm.
 Atom     1 has atomic number  6 and mass  12.00000

 Molecular mass:   248.13856 amu.
 Principal axes and moments of inertia in atomic units:
                           1         2         3
     Eigenvalues --  2521.219966416.938246686.24146
           X            0.99986   0.01597   0.00403
           Y           -0.01612   0.99906   0.04021
           Z           -0.00339  -0.04027   0.99918
 This molecule is an asymmetric top.
 Rotational symmetry number  1.
 Warning -- assumption of classical behavior for rotation
           may cause significant error
 Rotational temperatures (Kelvin)      0.03435     0.01350     0.01295
 Rotational constants (GHZ):           0.71582     0.28125     0.26992
 Zero-point vibrational energy     745679.0 (Joules/Mol)
                                  178.22156 (Kcal/Mol)
 Warning -- explicit consideration of  23 degrees of freedom as
           vibrations may cause significant error
 Vibrational temperatures:     35.66    58.03   124.91   157.75   184.68
          (Kelvin)            230.46   274.03   301.73   336.27   350.69
                              415.98   432.64   446.01   511.55   520.31
                              565.32   631.99   676.03   713.31   731.34
                              741.29   832.15   837.53   904.06   935.73
                              950.19  1025.42  1095.41  1104.07  1127.39
                             1152.98  1195.35  1222.14  1246.93  1261.45
                             1279.20  1313.13  1346.67  1379.89  1407.79
                             1465.91  1486.62  1525.69  1552.01  1576.33
                             1585.98  1628.60  1636.70  1657.59  1679.21
                             1695.35  1716.37  1720.49  1774.11  1823.36
                             1849.86  1885.62  1895.76  1914.62  1940.56
                             1962.15  1974.23  1993.61  2000.38  2012.73
                             2023.40  2032.20  2037.94  2053.17  2081.28
                             2175.59  2180.16  2182.70  2190.56  2198.01
                             2208.93  2213.52  2230.85  2333.63  2382.06
                             4344.54  4352.49  4363.88  4383.85  4388.19
                             4394.82  4422.79  4438.62  4447.93  4456.39
                             4477.68  4495.03  4637.21  4686.05  5132.88
                             5411.45

 Zero-point correction=                           0.284014 (Hartree/Particle)
 Thermal correction to Energy=                    0.299156
 Thermal correction to Enthalpy=                  0.300101
 Thermal correction to Gibbs Free Energy=         0.241111
 Sum of electronic and zero-point Energies=           -832.255091
 Sum of electronic and thermal Energies=              -832.239949
 Sum of electronic and thermal Enthalpies=            -832.239005
 Sum of electronic and thermal Free Energies=         -832.297995

                     E (Thermal)             CV                S
                      KCal/Mol        Cal/Mol-Kelvin    Cal/Mol-Kelvin
 Total                  187.723             60.174            124.154
 Electronic               0.000              0.000              0.000
 Translational            0.889              2.981             42.427
 Rotational               0.889              2.981             33.047
 Vibrational            185.946             54.212             48.680
 Vibration     1          0.593              1.985              6.208
 Vibration     2          0.594              1.981              5.243
 Vibration     3          0.601              1.958              3.731
 Vibration     4          0.606              1.941              3.275
 Vibration     5          0.611              1.925              2.970
 Vibration     6          0.622              1.891              2.548
 Vibration     7          0.634              1.853              2.223
 Vibration     8          0.642              1.826              2.046
 Vibration     9          0.654              1.789              1.850
 Vibration    10          0.659              1.773              1.775
 Vibration    11          0.686              1.694              1.479
 Vibration    12          0.693              1.672              1.413
 Vibration    13          0.699              1.655              1.362
 Vibration    14          0.731              1.564              1.142
 Vibration    15          0.736              1.551              1.115
 Vibration    16          0.760              1.485              0.989
 Vibration    17          0.799              1.385              0.829
 Vibration    18          0.827              1.317              0.738
 Vibration    19          0.851              1.259              0.669
 Vibration    20          0.863              1.232              0.638
 Vibration    21          0.870              1.216              0.621
 Vibration    22          0.935              1.078              0.488
 Vibration    23          0.939              1.070              0.481

 Optimization completed.
    -- Stationary point found.
 Normal termination of Gaussian 16 at Fri Dec 11 21:04:37 2020.

 ----------------------------------------------------------------------
 # B3LYP/6-311++G(d,p) empiricaldispersion=gd3bj scf=xqc pop=npa geom=c
 heck
 ----------------------------------------------------------------------

 --------------------------------------
 CID_62520439_JID_8647_Energie_neutraal
 --------------------------------------
 Structure from the checkpoint file:  "JID_8647.chk"
 Charge =  0 Multiplicity = 1

 SCF Done:  E(RB3LYP) =  -832.769401185     A.U. after   16 cycles
 Normal termination of Gaussian 16 at Fri Dec 11 21:12:07 2020.

 ----------------------------------------------------------------------
 # B3LYP/6-311++G(d,p) empiricaldispersion=gd3bj scf=xqc pop=npa geom=c
 heck
 ----------------------------------------------------------------------

 ------------------------------------
 CID_62520439_JID_8647_Energie_kation
 ------------------------------------
 Structure from the checkpoint file:  "JID_8647.chk"
 Charge =  1 Multiplicity = 2

 SCF Done:  E(UB3LYP) =  -832.471237316     A.U. after   22 cycles
 Normal termination of Gaussian 16 at Fri Dec 11 21:26:08 2020.
 Gaussian 16:  ES64L-G16RevA.03 25-Dec-2016

 ----------------------------------------------------------------------
 # B3LYP/6-311++G(d,p) empiricaldispersion=gd3bj scf=xqc pop=npa geom=c
 heck
 ----------------------------------------------------------------------

 -----------------------------------
 CID_62520439_JID_8647_Energie_anion
 -----------------------------------
 Structure from the checkpoint file:  "JID_8647.chk"
 Charge = -1 Multiplicity = 2

                         Standard orientation:
 ---------------------------------------------------------------------
 Center     Atomic      Atomic             Coordinates (Angstroms)
 Number     Number       Type             X           Y           Z
 ---------------------------------------------------------------------
      1          6           0       -3.473792   -1.212149   -1.345494
      2          6           0       -2.517895   -0.174535   -1.946387
      3          6           0       -2.255288    0.971833   -0.963285
      4          6           0       -1.692516    0.476208    0.386215
      5          6           0       -2.663383   -0.574271    0.966962
      6          6           0       -2.952183   -1.730509   -0.000165
      7          6           0       -1.535644    1.654786    1.371671
      8          8           0       -0.977164    1.266438    2.615558
      9          7           0       -0.405450   -0.219401    0.211250
     10          6           0        0.780019    0.327218   -0.164871
     11          6           0        1.086033    1.538850   -0.779992
     12          7           0        2.342692    1.907683   -1.133369
     13          6           0        3.367207    1.114246   -0.901722
     14          6           0        3.166926   -0.138516   -0.275423
     15          7           0        3.951882   -1.155543    0.105404
     16          7           0        3.137117   -2.067084    0.657909
     17          7           0        1.883572   -1.696102    0.650812
     18          7           0        1.880962   -0.470773    0.061676
     19          1           0       -3.618242   -2.046439   -2.041580
     20          1           0       -4.460865   -0.750166   -1.196840
     21          1           0       -1.565419   -0.655115   -2.201435
     22          1           0       -2.930076    0.230437   -2.877747
     23          1           0       -3.196998    1.496361   -0.752102
     24          1           0       -1.588719    1.711884   -1.415163
     25          1           0       -3.602396   -0.058850    1.208491
     26          1           0       -2.258413   -0.960393    1.911966
     27          1           0       -3.677483   -2.413331    0.457336
     28          1           0       -2.036456   -2.312209   -0.165279
     29          1           0       -0.848016    2.397437    0.958866
     30          1           0       -2.513367    2.144110    1.495245
     31          1           0       -1.668066    0.829164    3.134746
     32          1           0       -0.276712   -1.038111    0.795356
     33          1           0        0.303863    2.250576   -1.003434
     34          1           0        4.362350    1.432722   -1.193722
 ---------------------------------------------------------------------

 SCF Done:  E(UB3LYP) =  -832.777387197     A.U. after   33 cycles
 SCF Done:  E(UB3LYP) =  -832.777387197     a.u. after    1 cycles

 The electronic state is 2-A.
 Alpha  occ. eigenvalues --  -19.03576 -14.29533 -14.25870 -14.25162 -14.22901
 Alpha  occ. eigenvalues --  -14.20782 -14.18265 -10.14536 -10.13027 -10.12504
 Alpha  occ. eigenvalues --  -10.12496 -10.08625 -10.08451 -10.08225 -10.08018
 Alpha  occ. eigenvalues --  -10.07973 -10.07888 -10.07415  -1.01714  -0.93839
 Alpha  occ. eigenvalues --   -0.88249  -0.82949  -0.80703  -0.75570  -0.74194
 Alpha  occ. eigenvalues --   -0.67976  -0.66402  -0.64396  -0.58998  -0.57060
 Alpha  occ. eigenvalues --   -0.55708  -0.53820  -0.52366  -0.50145  -0.46646
 Alpha  occ. eigenvalues --   -0.45422  -0.42955  -0.42174  -0.40374  -0.39011
 Alpha  occ. eigenvalues --   -0.38887  -0.36823  -0.36747  -0.35954  -0.34686
 Alpha  occ. eigenvalues --   -0.34156  -0.32514  -0.30676  -0.29819  -0.29138
 Alpha  occ. eigenvalues --   -0.28537  -0.28088  -0.26192  -0.25577  -0.25258
 Alpha  occ. eigenvalues --   -0.24953  -0.23855  -0.23105  -0.21939  -0.20073
 Alpha  occ. eigenvalues --   -0.18895  -0.18445  -0.17432  -0.16619  -0.14395
 Alpha  occ. eigenvalues --   -0.10230   0.03505
 Alpha virt. eigenvalues --    0.04974   0.06610   0.07232   0.08021   0.08584
 Alpha virt. eigenvalues --    0.09256   0.09510   0.10107   0.10742   0.10955
 Alpha virt. eigenvalues --    0.11922   0.12255   0.13071   0.13867   0.14011

  Beta  occ. eigenvalues --  -19.03559 -14.29377 -14.25931 -14.25080 -14.22838
  Beta  occ. eigenvalues --  -14.20609 -14.17841 -10.14296 -10.13032 -10.12532
  Beta  occ. eigenvalues --  -10.12472 -10.08723 -10.08427 -10.08215 -10.08009
  Beta  occ. eigenvalues --  -10.07961 -10.07885 -10.07198  -1.01558  -0.93793
  Beta  occ. eigenvalues --   -0.87973  -0.82652  -0.80291  -0.75307  -0.74122
  Beta  occ. eigenvalues --   -0.67868  -0.66364  -0.64176  -0.58942  -0.56697
  Beta  occ. eigenvalues --   -0.55566  -0.53731  -0.52231  -0.50063  -0.46540
  Beta  occ. eigenvalues --   -0.45293  -0.42872  -0.42026  -0.40253  -0.38816
  Beta  occ. eigenvalues --   -0.38410  -0.36758  -0.36684  -0.35846  -0.34639
  Beta  occ. eigenvalues --   -0.34095  -0.32457  -0.30570  -0.29753  -0.29006
  Beta  occ. eigenvalues --   -0.28461  -0.27433  -0.26130  -0.25509  -0.25201
  Beta  occ. eigenvalues --   -0.24144  -0.23466  -0.22954  -0.21899  -0.19732
  Beta  occ. eigenvalues --   -0.18803  -0.17944  -0.16819  -0.16415  -0.13890
  Beta  occ. eigenvalues --   -0.09357
  Beta virt. eigenvalues --    0.05770   0.06970   0.07511   0.08338   0.08449
  Beta virt. eigenvalues --    0.08889   0.09270   0.09614   0.10124   0.10819
  Beta virt. eigenvalues --    0.11211   0.12005   0.12297   0.13117   0.13886

 Mulliken charges and spin densities:
               1          2
     1  C    0.207602  -0.776038
     2  C   -0.384253   0.160385
     3  C    0.114586  -0.519349
     4  C   -1.033857   0.494947
     5  C    0.399240  -0.495502
     6  C   -0.611791   0.314136
     7  C    0.382463  -0.517299
     8  O   -0.173931   0.016476
     9  N    0.086983  -0.001210
    10  C   -0.483237   0.138178
    11  C   -0.087151  -0.134716
    12  N   -0.068760   0.188269
    13  C   -0.338265   0.179971
    14  C    0.217852  -0.032365
    15  N   -0.114776   0.075816
    16  N    0.143167   0.024713
    17  N   -0.190528  -0.028024
    18  N    0.022662   0.025325
    19  H    0.056723   0.105866
    20  H   -0.041240   0.164417
    21  H    0.132328   0.010720
    22  H    0.098766   0.069540
    23  H   -0.061197   0.228406
    24  H    0.128070   0.002145
    25  H   -0.360523   0.552560
    26  H    0.069885   0.062109
    27  H   -0.164963   0.345843
    28  H    0.143031  -0.018455
    29  H    0.189940  -0.010841
    30  H   -0.127908   0.283202
    31  H    0.104736   0.135585
    32  H    0.386212  -0.039575
    33  H    0.180558   0.011872
    34  H    0.177576  -0.017108
 Sum of Mulliken charges =  -1.00000   1.00000

 Dipole moment (field-independent basis, Debye):
    X=             -4.5700    Y=              0.9261    Z=             -1.9012  Tot=              5.0356
 Quadrupole moment (field-independent basis, Debye-Ang):
   XX=           -186.7058   YY=           -139.8834   ZZ=           -132.2571
   XY=              6.2788   XZ=              3.5601   YZ=              3.3321

 Summary of Natural Population Analysis:

                                       Natural Population
                Natural  -----------------------------------------------
    Atom  No    Charge         Core      Valence    Rydberg      Total
 -----------------------------------------------------------------------
      C    1   -0.18899      0.99963     2.18131    0.00805     3.18899
      C    2   -0.19091      0.99963     2.18280    0.00848     3.19091
      C    3   -0.19502      0.99958     2.18586    0.00958     3.19502
      C    4    0.05697      0.99955     1.92925    0.01423     2.94303
      C    5   -0.19783      0.99958     2.18634    0.01191     3.19783
      C    6   -0.19111      0.99963     2.18245    0.00903     3.19111
      C    7   -0.01107      0.99951     1.99783    0.01373     3.01107
      O    8   -0.36461      0.99990     3.35816    0.00655     4.36461
      N    9   -0.31349      0.99964     2.80200    0.01185     3.81349
      C   10    0.23184      0.99954     1.75592    0.01270     2.76816
      C   11   -0.06581      0.99957     2.05449    0.01176     3.06581
      N   12   -0.15857      0.99971     2.64750    0.01135     3.65857
      C   13    0.02783      0.99959     1.95883    0.01376     2.97217
      C   14    0.14963      0.99960     1.83705    0.01373     2.85037
      N   15   -0.14731      0.99971     2.63335    0.01425     3.64731
      N   16   -0.02910      0.99981     2.50946    0.01983     3.52910
      N   17   -0.09040      0.99978     2.57588    0.01474     3.59040
      N   18   -0.09305      0.99956     2.57790    0.01559     3.59305
      H   19    0.09726      0.00000     0.40198    0.00075     0.40274
      H   20    0.09318      0.00000     0.40565    0.00117     0.40682
      H   21    0.10172      0.00000     0.39714    0.00114     0.39828
      H   22    0.09734      0.00000     0.40187    0.00079     0.40266
      H   23    0.09890      0.00000     0.39991    0.00119     0.40110
      H   24    0.10251      0.00000     0.39611    0.00138     0.39749
      H   25    0.10309      0.00000     0.39490    0.00201     0.39691
      H   26    0.10034      0.00000     0.39836    0.00130     0.39966
      H   27    0.10002      0.00000     0.39906    0.00092     0.39998
      H   28    0.09858      0.00000     0.40019    0.00124     0.40142
      H   29    0.09221      0.00000     0.40608    0.00172     0.40779
      H   30    0.07963      0.00000     0.41930    0.00107     0.42037
      H   31    0.22811      0.00000     0.26892    0.00297     0.27189
      H   32    0.20107      0.00000     0.29500    0.00392     0.29893
      H   33    0.08842      0.00000     0.40913    0.00245     0.41158
      H   34    0.08864      0.00000     0.41022    0.00113     0.41136
 =======================================================================
   * Total *    0.00000     17.99349    47.76023    0.24627    66.00000

 Normal termination of Gaussian 16 at Fri Dec 11 21:47:54 2020.
