 Gaussian 16, Revision A.03,

 -----------------------------------------------------------
 # opt freq B3LYP/6-31G(d) empiricaldispersion=gd3bj scf=xqc
 -----------------------------------------------------------

 -------------------------------
 CID_145642763_JID_9620_neutraal
 -------------------------------
 Symbolic Z-matrix:
 Charge =  0 Multiplicity = 1

 SCF Done:  E(RB3LYP) =  -878.345689046     A.U. after   15 cycles
 SCF Done:  E(RB3LYP) =  -878.354002230     A.U. after   13 cycles
 SCF Done:  E(RB3LYP) =  -878.354614094     A.U. after   14 cycles
 SCF Done:  E(RB3LYP) =  -878.355981962     A.U. after   13 cycles
 SCF Done:  E(RB3LYP) =  -878.357338967     A.U. after   12 cycles
 SCF Done:  E(RB3LYP) =  -878.357922374     A.U. after   13 cycles
 SCF Done:  E(RB3LYP) =  -878.358033059     A.U. after   13 cycles
 SCF Done:  E(RB3LYP) =  -878.358412731     A.U. after   12 cycles
 SCF Done:  E(RB3LYP) =  -878.358469112     A.U. after   11 cycles
 SCF Done:  E(RB3LYP) =  -878.358527200     A.U. after   12 cycles
 SCF Done:  E(RB3LYP) =  -878.358928684     A.U. after   10 cycles
 SCF Done:  E(RB3LYP) =  -878.358930136     A.U. after   10 cycles
 SCF Done:  E(RB3LYP) =  -878.358930298     A.U. after    9 cycles
 SCF Done:  E(RB3LYP) =  -878.358930308     A.U. after    7 cycles
 SCF Done:  E(RB3LYP) =  -878.358930310     A.U. after    7 cycles
 Optimization completed.
    -- Stationary point found.
 Normal termination of Gaussian 16 at Sat Dec 12 10:04:50 2020.

 --------------------------------------------------------------------
 #N Geom=AllCheck Guess=TCheck SCRF=Check GenChk RB3LYP/6-31G(d) Freq
 --------------------------------------------------------------------

 Structure from the checkpoint file:  "JID_9620.chk"
 -------------------------------
 CID_145642763_JID_9620_neutraal
 -------------------------------
 Charge =  0 Multiplicity = 1

 SCF Done:  E(RB3LYP) =  -878.358930310     A.U. after    1 cycles

  Exact polarizability: 221.043  -0.775 198.106  -1.489  12.580  91.907
 Approx polarizability: 329.152  -1.430 345.141   1.098  25.645 141.632

                      1                      2                      3
                      A                      A                      A
 Frequencies --      8.9745                36.7409                44.7566
 Red. masses --      5.4010                 6.9417                 5.6757
 Frc consts  --      0.0003                 0.0055                 0.0067
 IR Inten    --      0.7370                 0.4880                 0.0978

                      4                      5                      6
                      A                      A                      A
 Frequencies --     55.8381                72.9745               121.2565
 Red. masses --      8.0165                 6.7086                 3.7398
 Frc consts  --      0.0147                 0.0210                 0.0324
 IR Inten    --      4.0728                 0.7081                 1.0455

                      7                      8                      9
                      A                      A                      A
 Frequencies --    143.5443               158.9348               163.1493
 Red. masses --      4.1102                 3.5144                 3.5882
 Frc consts  --      0.0499                 0.0523                 0.0563
 IR Inten    --      2.1484                 1.5722                 3.8713

                     10                     11                     12
                      A                      A                      A
 Frequencies --    214.7970               243.1878               267.9242
 Red. masses --      3.5029                 4.4641                 2.8988
 Frc consts  --      0.0952                 0.1555                 0.1226
 IR Inten    --      1.4719                 6.8937                 2.4530

                     13                     14                     15
                      A                      A                      A
 Frequencies --    292.2953               318.5889               338.3858
 Red. masses --      2.3184                 1.5981                 2.3238
 Frc consts  --      0.1167                 0.0956                 0.1568
 IR Inten    --      8.8404                28.6857                 3.3628

                     16                     17                     18
                      A                      A                      A
 Frequencies --    343.4019               399.5070               438.9446
 Red. masses --      3.2262                 3.9037                 3.3013
 Frc consts  --      0.2242                 0.3671                 0.3748
 IR Inten    --      1.3286                 7.0669                 6.4736

                     19                     20                     21
                      A                      A                      A
 Frequencies --    452.6925               480.0446               488.0914
 Red. masses --      2.9827                 3.5833                 5.1969
 Frc consts  --      0.3601                 0.4865                 0.7295
 IR Inten    --      8.6102                 0.1917                 1.3547

                     22                     23                     24
                      A                      A                      A
 Frequencies --    497.4250               531.7051               539.6762
 Red. masses --      4.4072                 3.7770                 3.5558
 Frc consts  --      0.6425                 0.6291                 0.6102
 IR Inten    --      2.3814                 1.8878                37.1065

                     25                     26                     27
                      A                      A                      A
 Frequencies --    554.1023               571.4995               626.7157
 Red. masses --      3.3058                 4.6606                 2.6429
 Frc consts  --      0.5980                 0.8969                 0.6116
 IR Inten    --      9.8524                 2.2664                27.2125

                     28                     29                     30
                      A                      A                      A
 Frequencies --    639.1703               654.0199               714.5508
 Red. masses --      1.7605                 3.4788                 2.1577
 Frc consts  --      0.4238                 0.8767                 0.6491
 IR Inten    --     63.9047                 1.3688               282.1822

                     31                     32                     33
                      A                      A                      A
 Frequencies --    723.9567               726.8575               762.7501
 Red. masses --      2.3342                 2.7749                 1.9116
 Frc consts  --      0.7208                 0.8638                 0.6553
 IR Inten    --     98.4984                42.6714                 4.2876

                     34                     35                     36
                      A                      A                      A
 Frequencies --    783.1381               791.8646               803.5678
 Red. masses --      1.4519                 2.3129                 3.0306
 Frc consts  --      0.5246                 0.8545                 1.1530
 IR Inten    --     38.0037                26.1565                11.1859

                     37                     38                     39
                      A                      A                      A
 Frequencies --    818.3175               836.5857               871.0346
 Red. masses --      3.7593                 1.5776                 4.5337
 Frc consts  --      1.4832                 0.6505                 2.0266
 IR Inten    --     13.1001                88.8312                 9.4015

                     40                     41                     42
                      A                      A                      A
 Frequencies --    878.7489               886.1216               908.8435
 Red. masses --      1.9196                 1.9303                 1.3728
 Frc consts  --      0.8734                 0.8930                 0.6681
 IR Inten    --     18.4128                15.4716                 0.9187

                     43                     44                     45
                      A                      A                      A
 Frequencies --    941.8322               959.1944               992.6207
 Red. masses --      2.0190                 1.3224                 1.2674
 Frc consts  --      1.0552                 0.7168                 0.7358
 IR Inten    --      8.4472                 2.5050                 0.9016

                     46                     47                     48
                      A                      A                      A
 Frequencies --   1012.8917              1046.6537              1051.0826
 Red. masses --      2.5481                 2.3302                 2.7222
 Frc consts  --      1.5403                 1.5040                 1.7719
 IR Inten    --     25.5968                30.7351                27.8559

                     49                     50                     51
                      A                      A                      A
 Frequencies --   1069.8355              1085.4936              1096.9196
 Red. masses --      1.9707                 2.6209                 3.5193
 Frc consts  --      1.3289                 1.8195                 2.4949
 IR Inten    --      1.6350                 0.6711                23.0252

                     52                     53                     54
                      A                      A                      A
 Frequencies --   1125.9701              1158.9459              1173.0769
 Red. masses --      2.6733                 1.4861                 3.5786
 Frc consts  --      1.9969                 1.1760                 2.9015
 IR Inten    --     16.3845                 3.9677               136.5822

                     55                     56                     57
                      A                      A                      A
 Frequencies --   1188.5624              1201.9206              1205.2244
 Red. masses --      1.4050                 1.4382                 1.5182
 Frc consts  --      1.1694                 1.2241                 1.2993
 IR Inten    --     13.8294                 7.9511                 1.4079

                     58                     59                     60
                      A                      A                      A
 Frequencies --   1213.4360              1256.0770              1278.8832
 Red. masses --      2.1060                 1.2306                 1.5097
 Frc consts  --      1.8270                 1.1439                 1.4548
 IR Inten    --    170.2761                51.6315                14.6086

                     61                     62                     63
                      A                      A                      A
 Frequencies --   1294.5547              1305.2729              1316.1536
 Red. masses --      2.4931                 1.3439                 1.7879
 Frc consts  --      2.4616                 1.3490                 1.8248
 IR Inten    --      7.9077                17.0274                33.8019

                     64                     65                     66
                      A                      A                      A
 Frequencies --   1339.2769              1383.7470              1389.6594
 Red. masses --      1.2153                 1.7570                 1.4188
 Frc consts  --      1.2843                 1.9822                 1.6143
 IR Inten    --     31.3897                 6.4559                45.1166

                     67                     68                     69
                      A                      A                      A
 Frequencies --   1400.3309              1413.7855              1416.8271
 Red. masses --      2.3364                 2.4190                 3.2160
 Frc consts  --      2.6993                 2.8487                 3.8037
 IR Inten    --      6.9856                13.1482                36.7615

                     70                     71                     72
                      A                      A                      A
 Frequencies --   1431.5582              1447.1414              1484.7010
 Red. masses --      1.4096                 2.3787                 2.1675
 Frc consts  --      1.7020                 2.9350                 2.8151
 IR Inten    --      5.8113                56.6179                13.8409

                     73                     74                     75
                      A                      A                      A
 Frequencies --   1509.3921              1514.6184              1526.6766
 Red. masses --      1.7634                 1.4157                 1.0914
 Frc consts  --      2.3671                 1.9135                 1.4988
 IR Inten    --     56.2117                20.6320                 0.9526

                     76                     77                     78
                      A                      A                      A
 Frequencies --   1533.6731              1549.3536              1576.8113
 Red. masses --      1.1277                 1.4097                 2.9597
 Frc consts  --      1.5628                 1.9938                 4.3356
 IR Inten    --      4.7609                 0.8314                 5.4713

                     79                     80                     81
                      A                      A                      A
 Frequencies --   1645.4116              1654.7554              1680.9249
 Red. masses --      5.4683                 4.1931                 4.3181
 Frc consts  --      8.7227                 6.7647                 7.1885
 IR Inten    --      4.1979                38.4777                 1.8881

                     82                     83                     84
                      A                      A                      A
 Frequencies --   1699.1690              1832.4055              2978.2678
 Red. masses --      1.3123                 9.6947                 1.0742
 Frc consts  --      2.2324                19.1792                 5.6137
 IR Inten    --    104.4767               251.0171                50.9960

                     85                     86                     87
                      A                      A                      A
 Frequencies --   3034.3227              3050.2170              3099.2498
 Red. masses --      1.0678                 1.0615                 1.1022
 Frc consts  --      5.7925                 5.8190                 6.2377
 IR Inten    --     45.2957                18.1718                26.3791

                     88                     89                     90
                      A                      A                      A
 Frequencies --   3101.9819              3126.1141              3168.4590
 Red. masses --      1.0901                 1.0955                 1.0870
 Frc consts  --      6.1800                 6.3076                 6.4298
 IR Inten    --      4.9653                32.6342                29.2595

                     91                     92                     93
                      A                      A                      A
 Frequencies --   3183.6504              3185.4696              3196.5724
 Red. masses --      1.0854                 1.0938                 1.0892
 Frc consts  --      6.4819                 6.5391                 6.5573
 IR Inten    --      2.6421                23.9411                18.1739

                     94                     95                     96
                      A                      A                      A
 Frequencies --   3210.1468              3221.8379              3527.6553
 Red. masses --      1.0944                 1.0934                 1.0487
 Frc consts  --      6.6448                 6.6868                 7.6890
 IR Inten    --     30.8563                12.5003                 4.4417

                     97                     98                     99
                      A                      A                      A
 Frequencies --   3528.1795              3621.1130              3676.5974
 Red. masses --      1.0743                 1.0960                 1.0640
 Frc consts  --      7.8789                 8.4677                 8.4741
 IR Inten    --     38.0645                 6.4079                55.7689

 - Thermochemistry -
 -------------------
 Temperature   298.150 Kelvin.  Pressure   1.00000 Atm.
 Atom     1 has atomic number  6 and mass  12.00000

 Molecular mass:   260.11609 amu.
 Principal axes and moments of inertia in atomic units:
                           1         2         3
     Eigenvalues --  2440.711789546.90016**********
           X            0.99999   0.00358  -0.00345
           Y           -0.00354   0.99993   0.01137
           Z            0.00349  -0.01136   0.99993
 This molecule is an asymmetric top.
 Rotational symmetry number  1.
 Warning -- assumption of classical behavior for rotation
           may cause significant error
 Rotational temperatures (Kelvin)      0.03549     0.00907     0.00792
 Rotational constants (GHZ):           0.73943     0.18904     0.16499
 Zero-point vibrational energy     756753.7 (Joules/Mol)
                                  180.86847 (Kcal/Mol)
 Warning -- explicit consideration of  26 degrees of freedom as
           vibrations may cause significant error
 Vibrational temperatures:     12.91    52.86    64.39    80.34   104.99
          (Kelvin)            174.46   206.53   228.67   234.74   309.04
                              349.89   385.48   420.55   458.38   486.86
                              494.08   574.80   631.54   651.32   690.68
                              702.25   715.68   765.01   776.47   797.23
                              822.26   901.70   919.62   940.99  1028.08
                             1041.61  1045.79  1097.43  1126.76  1139.32
                             1156.15  1177.38  1203.66  1253.22  1264.32
                             1274.93  1307.62  1355.09  1380.07  1428.16
                             1457.33  1505.90  1512.27  1539.25  1561.78
                             1578.22  1620.02  1667.46  1687.80  1710.08
                             1729.30  1734.05  1745.86  1807.21  1840.03
                             1862.58  1878.00  1893.65  1926.92  1990.90
                             1999.41  2014.76  2034.12  2038.50  2059.69
                             2082.11  2136.15  2171.68  2179.20  2196.55
                             2206.61  2229.17  2268.68  2367.38  2380.82
                             2418.48  2444.73  2636.42  4285.06  4365.71
                             4388.58  4459.13  4463.06  4497.78  4558.71
                             4580.56  4583.18  4599.15  4618.69  4635.51
                             5075.51  5076.26  5209.97  5289.80

 Zero-point correction=                           0.288232 (Hartree/Particle)
 Thermal correction to Energy=                    0.305298
 Thermal correction to Enthalpy=                  0.306242
 Thermal correction to Gibbs Free Energy=         0.240926
 Sum of electronic and zero-point Energies=           -878.070698
 Sum of electronic and thermal Energies=              -878.053632
 Sum of electronic and thermal Enthalpies=            -878.052688
 Sum of electronic and thermal Free Energies=         -878.118004

                     E (Thermal)             CV                S
                      KCal/Mol        Cal/Mol-Kelvin    Cal/Mol-Kelvin
 Total                  191.577             66.075            137.469
 Electronic               0.000              0.000              0.000
 Translational            0.889              2.981             42.568
 Rotational               0.889              2.981             33.899
 Vibrational            189.800             60.113             61.003
 Vibration     1          0.593              1.987              8.226
 Vibration     2          0.594              1.982              5.427
 Vibration     3          0.595              1.979              5.037
 Vibration     4          0.596              1.975              4.599
 Vibration     5          0.599              1.967              4.071
 Vibration     6          0.609              1.931              3.080
 Vibration     7          0.616              1.910              2.756
 Vibration     8          0.621              1.893              2.562
 Vibration     9          0.623              1.888              2.513
 Vibration    10          0.645              1.818              2.003
 Vibration    11          0.659              1.774              1.779
 Vibration    12          0.673              1.732              1.610
 Vibration    13          0.688              1.688              1.461
 Vibration    14          0.705              1.638              1.317
 Vibration    15          0.719              1.599              1.220
 Vibration    16          0.722              1.589              1.196
 Vibration    17          0.766              1.471              0.964
 Vibration    18          0.799              1.385              0.830
 Vibration    19          0.811              1.355              0.788
 Vibration    20          0.836              1.294              0.710
 Vibration    21          0.844              1.276              0.689
 Vibration    22          0.853              1.256              0.665
 Vibration    23          0.887              1.180              0.583
 Vibration    24          0.895              1.162              0.566
 Vibration    25          0.910              1.131              0.536
 Vibration    26          0.928              1.093              0.501

 Optimization completed.
    -- Stationary point found.
 Normal termination of Gaussian 16 at Sat Dec 12 10:20:13 2020.

 ----------------------------------------------------------------------
 # B3LYP/6-311++G(d,p) empiricaldispersion=gd3bj scf=xqc pop=npa geom=c
 heck
 ----------------------------------------------------------------------

 ---------------------------------------
 CID_145642763_JID_9620_Energie_neutraal
 ---------------------------------------
 Structure from the checkpoint file:  "JID_9620.chk"
 Charge =  0 Multiplicity = 1

 SCF Done:  E(RB3LYP) =  -878.617742154     A.U. after   16 cycles
 Normal termination of Gaussian 16 at Sat Dec 12 10:26:05 2020.

 ----------------------------------------------------------------------
 # B3LYP/6-311++G(d,p) empiricaldispersion=gd3bj scf=xqc pop=npa geom=c
 heck
 ----------------------------------------------------------------------

 -------------------------------------
 CID_145642763_JID_9620_Energie_kation
 -------------------------------------
 Structure from the checkpoint file:  "JID_9620.chk"
 Charge =  1 Multiplicity = 2

 SCF Done:  E(UB3LYP) =  -878.365238425     A.U. after   20 cycles
 Normal termination of Gaussian 16 at Sat Dec 12 10:36:07 2020.
 Gaussian 16:  ES64L-G16RevA.03 25-Dec-2016

 ----------------------------------------------------------------------
 # B3LYP/6-311++G(d,p) empiricaldispersion=gd3bj scf=xqc pop=npa geom=c
 heck
 ----------------------------------------------------------------------

 ------------------------------------
 CID_145642763_JID_9620_Energie_anion
 ------------------------------------
 Structure from the checkpoint file:  "JID_9620.chk"
 Charge = -1 Multiplicity = 2

                         Standard orientation:
 ---------------------------------------------------------------------
 Center     Atomic      Atomic             Coordinates (Angstroms)
 Number     Number       Type             X           Y           Z
 ---------------------------------------------------------------------
      1          6           0       -3.900204    2.117525    0.330426
      2          6           0       -2.606919    2.633718    0.567042
      3          6           0       -1.508607    1.806376    0.492590
      4          6           0       -1.646062    0.427233    0.188967
      5          6           0       -2.963301   -0.111669    0.028325
      6          6           0       -4.070675    0.774443    0.075180
      7          6           0       -3.128969   -1.524568   -0.153501
      8          6           0       -2.006323   -2.327595   -0.223303
      9          6           0       -0.709590   -1.777335   -0.153700
     10          6           0       -0.507324   -0.428832    0.054464
     11          7           0        0.799953    0.128222    0.150591
     12          6           0        1.259733    0.823528   -1.063616
     13          6           0        2.634581    1.476934   -0.881292
     14          8           0        3.744407    0.709111   -1.358589
     15          6           0        3.849436   -0.587664   -0.835179
     16          6           0        4.000061   -0.662031    0.682034
     17          8           0        3.426195   -1.472456    1.379394
     18          8           0        4.848795    0.264060    1.166895
     19          7           0       -4.421767   -2.056325   -0.300494
     20          1           0       -4.761446    2.779172    0.356047
     21          1           0       -2.480238    3.685686    0.807536
     22          1           0       -0.512885    2.186581    0.692891
     23          1           0       -5.066317    0.390129   -0.122337
     24          1           0       -2.122504   -3.401734   -0.348643
     25          1           0        0.150795   -2.435735   -0.249816
     26          1           0        1.452980   -0.599219    0.429739
     27          1           0        1.285515    0.170850   -1.953636
     28          1           0        0.527804    1.606852   -1.280736
     29          1           0        2.692436    2.399118   -1.464562
     30          1           0        2.774276    1.733494    0.178736
     31          1           0        2.996855   -1.226676   -1.099210
     32          1           0        4.748144   -1.026540   -1.283657
     33          1           0        4.865896    0.137748    2.135022
     34          1           0       -5.095099   -1.679849    0.357904
     35          1           0       -4.433708   -3.069249   -0.258166
 ---------------------------------------------------------------------

 SCF Done:  E(UB3LYP) =  -878.614388912     A.U. after   33 cycles
 SCF Done:  E(UB3LYP) =  -878.614388911     a.u. after    1 cycles

 The electronic state is 2-A.
 Alpha  occ. eigenvalues --  -19.08264 -19.04538 -19.02858 -14.20859 -14.19907
 Alpha  occ. eigenvalues --  -10.21477 -10.14589 -10.12665 -10.09974 -10.08786
 Alpha  occ. eigenvalues --  -10.07608 -10.06391 -10.06282 -10.05548 -10.05499
 Alpha  occ. eigenvalues --  -10.05276 -10.05132 -10.05028 -10.04584  -1.02489
 Alpha  occ. eigenvalues --   -0.95697  -0.93464  -0.81608  -0.80719  -0.73996
 Alpha  occ. eigenvalues --   -0.69753  -0.67435  -0.64215  -0.62534  -0.62238
 Alpha  occ. eigenvalues --   -0.58096  -0.54309  -0.51000  -0.50839  -0.50089
 Alpha  occ. eigenvalues --   -0.47168  -0.42696  -0.42345  -0.41647  -0.40727
 Alpha  occ. eigenvalues --   -0.40282  -0.39702  -0.38649  -0.36868  -0.36452
 Alpha  occ. eigenvalues --   -0.35774  -0.34447  -0.33097  -0.31917  -0.31385
 Alpha  occ. eigenvalues --   -0.30951  -0.30231  -0.29726  -0.28866  -0.28295
 Alpha  occ. eigenvalues --   -0.27989  -0.27608  -0.24605  -0.24017  -0.23390
 Alpha  occ. eigenvalues --   -0.22625  -0.22033  -0.20701  -0.19661  -0.17640
 Alpha  occ. eigenvalues --   -0.15050  -0.13694  -0.13179  -0.07929   0.04033
 Alpha virt. eigenvalues --    0.05351   0.06613   0.06664   0.07782   0.07833
 Alpha virt. eigenvalues --    0.08595   0.09081   0.09469   0.09943   0.10805
 Alpha virt. eigenvalues --    0.11166   0.12007   0.12336   0.12664   0.13296

  Beta  occ. eigenvalues --  -19.08212 -19.04533 -19.02805 -14.20828 -14.19915
  Beta  occ. eigenvalues --  -10.21408 -10.14576 -10.12657 -10.09962 -10.08626
  Beta  occ. eigenvalues --  -10.07486 -10.06425 -10.06316 -10.05516 -10.05458
  Beta  occ. eigenvalues --  -10.05245 -10.05124 -10.04868 -10.04408  -1.02374
  Beta  occ. eigenvalues --   -0.95684  -0.93360  -0.81516  -0.80615  -0.73860
  Beta  occ. eigenvalues --   -0.69597  -0.67361  -0.63987  -0.62425  -0.62082
  Beta  occ. eigenvalues --   -0.57919  -0.54207  -0.50930  -0.50543  -0.50015
  Beta  occ. eigenvalues --   -0.47007  -0.42641  -0.42250  -0.41538  -0.40596
  Beta  occ. eigenvalues --   -0.40214  -0.39609  -0.38550  -0.36787  -0.36344
  Beta  occ. eigenvalues --   -0.35698  -0.34318  -0.33044  -0.31843  -0.31322
  Beta  occ. eigenvalues --   -0.30839  -0.30143  -0.29620  -0.28761  -0.28238
  Beta  occ. eigenvalues --   -0.27900  -0.27335  -0.24540  -0.23851  -0.23025
  Beta  occ. eigenvalues --   -0.22532  -0.21816  -0.20510  -0.19396  -0.17595
  Beta  occ. eigenvalues --   -0.14724  -0.13222  -0.12858  -0.07308
  Beta virt. eigenvalues --    0.06402   0.06652   0.07344   0.07667   0.07765
  Beta virt. eigenvalues --    0.08329   0.08648   0.09190   0.09511   0.09979
  Beta virt. eigenvalues --    0.10813   0.11132   0.12027   0.12303   0.12686

 Mulliken charges and spin densities:
               1          2
     1  C   -0.454678  -0.013217
     2  C   -0.231188  -0.044752
     3  C    0.064563  -0.017289
     4  C   -0.005189   0.252495
     5  C    0.269764   0.708489
     6  C    0.172321  -0.220567
     7  C   -0.742636  -0.193368
     8  C    0.448094  -0.518145
     9  C   -0.207136   0.054360
    10  C   -0.551280   0.032212
    11  N    0.209714   0.031718
    12  C   -0.203075  -0.011822
    13  C   -0.551083  -0.046898
    14  O   -0.039241  -0.011689
    15  C    0.113521  -0.449787
    16  C    0.308286  -0.344136
    17  O   -0.256517   0.039483
    18  O   -0.129005   0.015999
    19  N   -0.255535  -0.023832
    20  H    0.082857   0.032409
    21  H    0.125628   0.001067
    22  H    0.085673   0.029312
    23  H    0.100636  -0.013694
    24  H    0.015442   0.101717
    25  H    0.098067  -0.011030
    26  H    0.173387   0.165545
    27  H    0.141308   0.016601
    28  H    0.152002  -0.029813
    29  H    0.068034   0.087759
    30  H    0.244051  -0.022530
    31  H    0.209206  -0.014943
    32  H   -0.298842   0.500523
    33  H   -0.280805   0.575822
    34  H   -0.047314   0.276611
    35  H    0.170969   0.065387
 Sum of Mulliken charges =  -1.00000   1.00000

 Dipole moment (field-independent basis, Debye):
    X=             -1.1658    Y=              0.8685    Z=             -2.5652  Tot=              2.9485
 Quadrupole moment (field-independent basis, Debye-Ang):
   XX=           -204.2546   YY=           -132.1629   ZZ=           -139.1460
   XY=             -0.4739   XZ=             -8.2613   YZ=              2.6692

 Summary of Natural Population Analysis:

                                       Natural Population
                Natural  -----------------------------------------------
    Atom  No    Charge         Core      Valence    Rydberg      Total
 -----------------------------------------------------------------------
      C    1   -0.10033      0.99957     2.09126    0.00950     3.10033
      C    2   -0.10377      0.99957     2.09541    0.00879     3.10377
      C    3   -0.06709      0.99954     2.05851    0.00904     3.06709
      C    4   -0.03299      0.99946     2.02407    0.00946     3.03299
      C    5   -0.04364      0.99947     2.03547    0.00869     3.04364
      C    6   -0.07321      0.99954     2.06334    0.01033     3.07321
      C    7    0.11050      0.99945     1.87964    0.01040     2.88950
      C    8   -0.13098      0.99953     2.12163    0.00982     3.13098
      C    9   -0.10615      0.99952     2.09844    0.00819     3.10615
      C   10    0.09122      0.99943     1.89718    0.01216     2.90878
      N   11   -0.34184      0.99971     2.83109    0.01104     3.84184
      C   12   -0.10369      0.99961     2.09615    0.00793     3.10369
      C   13   -0.01717      0.99957     2.00632    0.01128     3.01717
      O   14   -0.29236      0.99989     3.28246    0.01001     4.29236
      C   15   -0.06102      0.99954     2.04668    0.01480     3.06102
      C   16    0.39426      0.99975     1.58012    0.02587     2.60574
      O   17   -0.30219      0.99987     3.29582    0.00650     4.30219
      O   18   -0.33892      0.99987     3.33151    0.00754     4.33892
      N   19   -0.40285      0.99972     2.89327    0.00986     3.90285
      H   20    0.09276      0.00000     0.40639    0.00085     0.40724
      H   21    0.09271      0.00000     0.40638    0.00091     0.40729
      H   22    0.10057      0.00000     0.39783    0.00160     0.39943
      H   23    0.09470      0.00000     0.40383    0.00148     0.40530
      H   24    0.09247      0.00000     0.40662    0.00090     0.40753
      H   25    0.09595      0.00000     0.40297    0.00108     0.40405
      H   26    0.18376      0.00000     0.31280    0.00344     0.31624
      H   27    0.08416      0.00000     0.41440    0.00144     0.41584
      H   28    0.10316      0.00000     0.39563    0.00121     0.39684
      H   29    0.09120      0.00000     0.40772    0.00108     0.40880
      H   30    0.08784      0.00000     0.41044    0.00172     0.41216
      H   31    0.08997      0.00000     0.40837    0.00166     0.41003
      H   32    0.10618      0.00000     0.39225    0.00157     0.39382
      H   33    0.24378      0.00000     0.24438    0.01184     0.25622
      H   34    0.18404      0.00000     0.31358    0.00238     0.31596
      H   35    0.17896      0.00000     0.31958    0.00146     0.32104
 =======================================================================
   * Total *    0.00000     18.99262    49.77155    0.23584    69.00000

 Normal termination of Gaussian 16 at Sat Dec 12 10:53:15 2020.
