 Gaussian 16, Revision A.03,

 -----------------------------------------------------------
 # opt freq B3LYP/6-31G(d) empiricaldispersion=gd3bj scf=xqc
 -----------------------------------------------------------

 -------------------------------
 CID_122707289_JID_5603_neutraal
 -------------------------------
 Symbolic Z-matrix:
 Charge =  0 Multiplicity = 1

 SCF Done:  E(RB3LYP) =  -971.001260118     A.U. after   15 cycles
 SCF Done:  E(RB3LYP) =  -971.004946823     A.U. after   13 cycles
 SCF Done:  E(RB3LYP) =  -971.006305094     A.U. after   13 cycles
 SCF Done:  E(RB3LYP) =  -971.007764569     A.U. after   15 cycles
 SCF Done:  E(RB3LYP) =  -971.008072821     A.U. after   12 cycles
 SCF Done:  E(RB3LYP) =  -971.008484752     A.U. after   12 cycles
 SCF Done:  E(RB3LYP) =  -971.008520117     A.U. after   12 cycles
 SCF Done:  E(RB3LYP) =  -971.008524096     A.U. after   10 cycles
 SCF Done:  E(RB3LYP) =  -971.008529929     A.U. after   10 cycles
 SCF Done:  E(RB3LYP) =  -971.008530766     A.U. after    9 cycles
 SCF Done:  E(RB3LYP) =  -971.008531208     A.U. after    9 cycles
 SCF Done:  E(RB3LYP) =  -971.008531465     A.U. after    8 cycles
 SCF Done:  E(RB3LYP) =  -971.008531729     A.U. after    9 cycles
 SCF Done:  E(RB3LYP) =  -971.008531787     A.U. after    8 cycles
 Optimization completed.
    -- Stationary point found.
 Normal termination of Gaussian 16 at Thu Dec 10 16:31:10 2020.

 --------------------------------------------------------------------
 #N Geom=AllCheck Guess=TCheck SCRF=Check GenChk RB3LYP/6-31G(d) Freq
 --------------------------------------------------------------------

 Structure from the checkpoint file:  "JID_5603.chk"
 -------------------------------
 CID_122707289_JID_5603_neutraal
 -------------------------------
 Charge =  0 Multiplicity = 1

 SCF Done:  E(RB3LYP) =  -971.008531787     A.U. after    1 cycles

  Exact polarizability: 323.736  -3.476 164.318  14.670  -3.338  70.098
 Approx polarizability: 494.776  -5.020 294.051  31.780  -5.718 115.813

                      1                      2                      3
                      A                      A                      A
 Frequencies --     22.1440                33.6350                49.0385
 Red. masses --      8.6526                 5.1632                 4.3276
 Frc consts  --      0.0025                 0.0034                 0.0061
 IR Inten    --      0.5556                 0.0658                 0.1034

                      4                      5                      6
                      A                      A                      A
 Frequencies --     97.7862               121.5911               183.6101
 Red. masses --      5.6001                 6.0705                 2.9419
 Frc consts  --      0.0316                 0.0529                 0.0584
 IR Inten    --      3.0120                 2.8563                 1.5636

                      7                      8                      9
                      A                      A                      A
 Frequencies --    215.0575               238.7630               330.6045
 Red. masses --      4.8534                 4.1872                 5.3852
 Frc consts  --      0.1323                 0.1406                 0.3468
 IR Inten    --      2.7455                 1.1956                 4.2428

                     10                     11                     12
                      A                      A                      A
 Frequencies --    333.3198               397.4146               423.5988
 Red. masses --      5.3802                 5.0450                 3.1604
 Frc consts  --      0.3522                 0.4695                 0.3341
 IR Inten    --      4.1181                 0.7587                 1.0736

                     13                     14                     15
                      A                      A                      A
 Frequencies --    439.7751               508.8402               520.1657
 Red. masses --      4.3061                 4.8814                 3.6374
 Frc consts  --      0.4907                 0.7447                 0.5799
 IR Inten    --      7.8689                10.6608                 4.0123

                     16                     17                     18
                      A                      A                      A
 Frequencies --    553.1946               608.4420               634.0372
 Red. masses --      3.5863                 9.9426                 6.3413
 Frc consts  --      0.6466                 2.1687                 1.5020
 IR Inten    --     10.6630                 7.9394                 0.6240

                     19                     20                     21
                      A                      A                      A
 Frequencies --    646.2100               703.5091               718.1558
 Red. masses --      4.7930                 3.8453                 1.9461
 Frc consts  --      1.1793                 1.1213                 0.5914
 IR Inten    --     18.7730                 7.0155                23.7803

                     22                     23                     24
                      A                      A                      A
 Frequencies --    726.9370               760.1258               761.4375
 Red. masses --      1.3376                 7.0835                 1.8192
 Frc consts  --      0.4164                 2.4114                 0.6214
 IR Inten    --     24.9267                 3.5376                 9.4970

                     25                     26                     27
                      A                      A                      A
 Frequencies --    811.8474               825.2720               846.9554
 Red. masses --      2.7921                 5.5606                 1.9471
 Frc consts  --      1.0842                 2.2314                 0.8229
 IR Inten    --     16.3181                73.2230                23.2333

                     28                     29                     30
                      A                      A                      A
 Frequencies --    862.8157               893.2413               897.4766
 Red. masses --      1.2884                 4.5466                 1.3113
 Frc consts  --      0.5651                 2.1374                 0.6223
 IR Inten    --      2.3417                21.7146                 1.7046

                     31                     32                     33
                      A                      A                      A
 Frequencies --    939.4274               973.8830              1000.0449
 Red. masses --      1.4328                 1.3569                 1.2644
 Frc consts  --      0.7450                 0.7583                 0.7450
 IR Inten    --     12.9966                 1.4820                 2.0853

                     34                     35                     36
                      A                      A                      A
 Frequencies --   1005.4509              1019.5058              1044.1108
 Red. masses --      1.4273                 5.6302                 1.3687
 Frc consts  --      0.8501                 3.4479                 0.8791
 IR Inten    --      4.8885                 0.9039                 3.8875

                     37                     38                     39
                      A                      A                      A
 Frequencies --   1060.6329              1096.8192              1112.2403
 Red. masses --      2.2471                 1.5492                 1.9325
 Frc consts  --      1.4894                 1.0981                 1.4085
 IR Inten    --      0.8441                29.7706                33.1521

                     40                     41                     42
                      A                      A                      A
 Frequencies --   1125.5452              1171.7049              1195.8415
 Red. masses --      1.8892                 2.3420                 1.0949
 Frc consts  --      1.4101                 1.8944                 0.9225
 IR Inten    --     16.1823                58.0382                 0.0065

                     43                     44                     45
                      A                      A                      A
 Frequencies --   1219.6063              1230.5809              1264.6881
 Red. masses --      1.1365                 2.0603                 2.9999
 Frc consts  --      0.9960                 1.8382                 2.8270
 IR Inten    --      6.1800                 0.9001                32.4934

                     46                     47                     48
                      A                      A                      A
 Frequencies --   1277.9655              1357.0587              1365.6699
 Red. masses --      1.4697                 2.8253                 2.0896
 Frc consts  --      1.4142                 3.0656                 2.2962
 IR Inten    --     18.4789                 9.8032                 5.1798

                     49                     50                     51
                      A                      A                      A
 Frequencies --   1371.2608              1385.7399              1435.7952
 Red. masses --      1.7633                 1.4004                 5.0030
 Frc consts  --      1.9535                 1.5844                 6.0767
 IR Inten    --      3.4595                36.1977                28.0786

                     52                     53                     54
                      A                      A                      A
 Frequencies --   1469.4907              1498.7702              1535.5914
 Red. masses --      2.1624                 2.2134                 4.7071
 Frc consts  --      2.7512                 2.9294                 6.5396
 IR Inten    --     35.2995                14.3975                51.3370

                     55                     56                     57
                      A                      A                      A
 Frequencies --   1545.2545              1628.1526              1633.8680
 Red. masses --      2.3030                 6.0645                 5.2715
 Frc consts  --      3.2400                 9.4719                 8.2912
 IR Inten    --      8.0082                51.5457               104.0701

                     58                     59                     60
                      A                      A                      A
 Frequencies --   1661.3898              1677.8993              3136.8261
 Red. masses --      5.6787                 5.8029                 1.0876
 Frc consts  --      9.2352                 9.6255                 6.3053
 IR Inten    --      1.8082                73.0792                 5.6123

                     61                     62                     63
                      A                      A                      A
 Frequencies --   3158.3584              3183.1022              3191.8235
 Red. masses --      1.0863                 1.0862                 1.0877
 Frc consts  --      6.3843                 6.4844                 6.5289
 IR Inten    --      6.3666                 4.0677                 0.8069

                     64                     65                     66
                      A                      A                      A
 Frequencies --   3194.2423              3201.6784              3212.3743
 Red. masses --      1.0915                 1.0920                 1.0956
 Frc consts  --      6.5616                 6.5951                 6.6615
 IR Inten    --     15.3123                23.6334                36.8262

                     67                     68                     69
                      A                      A                      A
 Frequencies --   3223.3381              3227.5818              3280.9306
 Red. masses --      1.0944                 1.0915                 1.0971
 Frc consts  --      6.6993                 6.6994                 6.9579
 IR Inten    --      4.8929                16.2865                 1.6495

 - Thermochemistry -
 -------------------
 Temperature   298.150 Kelvin.  Pressure   1.00000 Atm.
 Atom     1 has atomic number  6 and mass  12.00000

 Molecular mass:   214.05647 amu.
 Principal axes and moments of inertia in atomic units:
                           1         2         3
     Eigenvalues --  1295.278988329.084989410.70279
           X            0.99999  -0.00446   0.00148
           Y            0.00447   0.99997  -0.00667
           Z           -0.00145   0.00668   0.99998
 This molecule is an asymmetric top.
 Rotational symmetry number  1.
 Warning -- assumption of classical behavior for rotation
           may cause significant error
 Rotational temperatures (Kelvin)      0.06687     0.01040     0.00920
 Rotational constants (GHZ):           1.39332     0.21668     0.19178
 Zero-point vibrational energy     505298.1 (Joules/Mol)
                                  120.76915 (Kcal/Mol)
 Warning -- explicit consideration of  17 degrees of freedom as
           vibrations may cause significant error
 Vibrational temperatures:     31.86    48.39    70.56   140.69   174.94
          (Kelvin)            264.17   309.42   343.53   475.67   479.57
                              571.79   609.46   632.74   732.11   748.40
                              795.92   875.41   912.24   929.75  1012.19
                             1033.27  1045.90  1093.65  1095.54  1168.07
                             1187.38  1218.58  1241.40  1285.17  1291.27
                             1351.63  1401.20  1438.84  1446.62  1466.84
                             1502.24  1526.01  1578.08  1600.27  1619.41
                             1685.82  1720.55  1754.74  1770.53  1819.60
                             1838.71  1952.50  1964.89  1972.94  1993.77
                             2065.79  2114.27  2156.40  2209.37  2223.28
                             2342.55  2350.77  2390.37  2414.12  4513.19
                             4544.17  4579.77  4592.32  4595.80  4606.50
                             4621.89  4637.66  4643.77  4720.53

 Zero-point correction=                           0.192458 (Hartree/Particle)
 Thermal correction to Energy=                    0.205006
 Thermal correction to Enthalpy=                  0.205950
 Thermal correction to Gibbs Free Energy=         0.150704
 Sum of electronic and zero-point Energies=           -970.816074
 Sum of electronic and thermal Energies=              -970.803526
 Sum of electronic and thermal Enthalpies=            -970.802581
 Sum of electronic and thermal Free Energies=         -970.857828

                     E (Thermal)             CV                S
                      KCal/Mol        Cal/Mol-Kelvin    Cal/Mol-Kelvin
 Total                  128.643             48.026            116.276
 Electronic               0.000              0.000              0.000
 Translational            0.889              2.981             41.987
 Rotational               0.889              2.981             32.984
 Vibrational            126.866             42.065             41.305
 Vibration     1          0.593              1.985              6.432
 Vibration     2          0.594              1.983              5.603
 Vibration     3          0.595              1.978              4.856
 Vibration     4          0.603              1.951              3.498
 Vibration     5          0.609              1.931              3.075
 Vibration     6          0.631              1.862              2.291
 Vibration     7          0.645              1.818              2.000
 Vibration     8          0.657              1.781              1.812
 Vibration     9          0.713              1.614              1.257
 Vibration    10          0.715              1.609              1.244
 Vibration    11          0.764              1.476              0.972
 Vibration    12          0.786              1.419              0.880
 Vibration    13          0.800              1.383              0.827
 Vibration    14          0.864              1.230              0.636
 Vibration    15          0.875              1.205              0.610
 Vibration    16          0.909              1.133              0.538
 Vibration    17          0.967              1.014              0.435

 Optimization completed.
    -- Stationary point found.
 Normal termination of Gaussian 16 at Thu Dec 10 16:37:50 2020.

 ----------------------------------------------------------------------
 # B3LYP/6-311++G(d,p) empiricaldispersion=gd3bj scf=xqc pop=npa geom=c
 heck
 ----------------------------------------------------------------------

 ---------------------------------------
 CID_122707289_JID_5603_Energie_neutraal
 ---------------------------------------
 Structure from the checkpoint file:  "JID_5603.chk"
 Charge =  0 Multiplicity = 1

 SCF Done:  E(RB3LYP) =  -971.182497325     A.U. after   17 cycles
 Normal termination of Gaussian 16 at Thu Dec 10 16:41:41 2020.

 ----------------------------------------------------------------------
 # B3LYP/6-311++G(d,p) empiricaldispersion=gd3bj scf=xqc pop=npa geom=c
 heck
 ----------------------------------------------------------------------

 -------------------------------------
 CID_122707289_JID_5603_Energie_kation
 -------------------------------------
 Structure from the checkpoint file:  "JID_5603.chk"
 Charge =  1 Multiplicity = 2

 SCF Done:  E(UB3LYP) =  -970.902826478     A.U. after   25 cycles
 Normal termination of Gaussian 16 at Thu Dec 10 16:49:02 2020.
 Gaussian 16:  ES64L-G16RevA.03 25-Dec-2016

 ----------------------------------------------------------------------
 # B3LYP/6-311++G(d,p) empiricaldispersion=gd3bj scf=xqc pop=npa geom=c
 heck
 ----------------------------------------------------------------------

 ------------------------------------
 CID_122707289_JID_5603_Energie_anion
 ------------------------------------
 Structure from the checkpoint file:  "JID_5603.chk"
 Charge = -1 Multiplicity = 2

                         Standard orientation:
 ---------------------------------------------------------------------
 Center     Atomic      Atomic             Coordinates (Angstroms)
 Number     Number       Type             X           Y           Z
 ---------------------------------------------------------------------
      1          6           0       -4.387287   -1.658861   -0.032272
      2          6           0       -3.179392   -1.680086    0.667178
      3          6           0       -2.385674   -0.538062    0.734829
      4          6           0       -2.780643    0.650191    0.091809
      5          6           0       -4.018271    0.664422   -0.578501
      6          6           0       -4.807396   -0.479112   -0.650667
      7          6           0       -1.982616    1.878219    0.121177
      8          6           0       -0.633688    2.011287    0.148173
      9          6           0        0.330988    0.947787    0.012022
     10          7           0        1.595143    1.202002    0.148444
     11          6           0        2.480335    0.158054   -0.009937
     12          7           0        2.223228   -1.117550   -0.184937
     13          6           0        3.380380   -1.839861   -0.294051
     14          6           0        4.549781   -1.131986   -0.201977
     15         16           0        4.200846    0.546156    0.040866
     16          1           0       -5.005361   -2.550648   -0.081155
     17          1           0       -2.858909   -2.585825    1.173738
     18          1           0       -1.473998   -0.553376    1.321758
     19          1           0       -4.347489    1.581459   -1.060396
     20          1           0       -5.752826   -0.450082   -1.184759
     21          1           0       -2.564495    2.798959    0.104114
     22          1           0       -0.207447    3.008306    0.228512
     23          1           0       -0.014667   -0.056348   -0.242857
     24          1           0        3.320344   -2.912309   -0.442525
     25          1           0        5.563618   -1.501746   -0.261541
 ---------------------------------------------------------------------

 SCF Done:  E(UB3LYP) =  -971.223418104     A.U. after   24 cycles

 The electronic state is 2-A.
 Alpha  occ. eigenvalues --  -88.73792 -14.16277 -14.14836 -10.11038 -10.07561
 Alpha  occ. eigenvalues --  -10.06454 -10.06322 -10.06022 -10.06017 -10.05700
 Alpha  occ. eigenvalues --  -10.05520 -10.05044 -10.04611 -10.02876 -10.02579
 Alpha  occ. eigenvalues --   -7.82497  -5.78759  -5.78439  -5.78111  -0.83560
 Alpha  occ. eigenvalues --   -0.76396  -0.74190  -0.66662  -0.66213  -0.63261
 Alpha  occ. eigenvalues --   -0.61759  -0.58875  -0.52370  -0.49039  -0.47954
 Alpha  occ. eigenvalues --   -0.45743  -0.42788  -0.40302  -0.37915  -0.37520
 Alpha  occ. eigenvalues --   -0.34646  -0.34218  -0.32279  -0.31123  -0.30774
 Alpha  occ. eigenvalues --   -0.28958  -0.28521  -0.27334  -0.25677  -0.24537
 Alpha  occ. eigenvalues --   -0.23292  -0.22755  -0.21835  -0.21156  -0.17233
 Alpha  occ. eigenvalues --   -0.15191  -0.14461  -0.14299  -0.12623  -0.11947
 Alpha  occ. eigenvalues --   -0.08362   0.01289
 Alpha virt. eigenvalues --    0.07594   0.08402   0.09047   0.09612   0.09796
 Alpha virt. eigenvalues --    0.10068   0.10680   0.11342   0.12092   0.12524
 Alpha virt. eigenvalues --    0.13166   0.13662   0.14085   0.14304   0.14950

  Beta  occ. eigenvalues --  -88.73751 -14.16096 -14.14620 -10.10960 -10.07624
  Beta  occ. eigenvalues --  -10.06367 -10.06324 -10.06067 -10.06046 -10.05550
  Beta  occ. eigenvalues --  -10.05410 -10.04932 -10.04272 -10.02600 -10.02463
  Beta  occ. eigenvalues --   -7.82459  -5.78739  -5.78419  -5.77976  -0.83256
  Beta  occ. eigenvalues --   -0.75874  -0.74018  -0.66195  -0.65942  -0.63120
  Beta  occ. eigenvalues --   -0.61433  -0.58665  -0.51681  -0.48948  -0.47660
  Beta  occ. eigenvalues --   -0.45590  -0.42559  -0.39997  -0.37739  -0.37306
  Beta  occ. eigenvalues --   -0.34504  -0.34090  -0.32116  -0.31015  -0.30680
  Beta  occ. eigenvalues --   -0.28442  -0.28048  -0.27197  -0.25303  -0.24327
  Beta  occ. eigenvalues --   -0.23140  -0.22661  -0.21141  -0.20197  -0.16082
  Beta  occ. eigenvalues --   -0.14404  -0.14140  -0.14023  -0.11716  -0.11602
  Beta  occ. eigenvalues --   -0.07036
  Beta virt. eigenvalues --    0.06644   0.07591   0.08397   0.09061   0.09917
  Beta virt. eigenvalues --    0.09987   0.10555   0.10831   0.11343   0.12119
  Beta virt. eigenvalues --    0.12752   0.13515   0.13847   0.14092   0.14321

 Mulliken charges and spin densities:
               1          2
     1  C   -0.247311   0.116027
     2  C   -0.322137  -0.029991
     3  C   -0.707756   0.055143
     4  C    1.297512  -0.032095
     5  C   -0.002086   0.103283
     6  C   -0.345868  -0.025810
     7  C   -0.902089   0.277207
     8  C    0.235665   0.005388
     9  C   -0.464999   0.242228
    10  N    0.054207   0.081175
    11  C   -0.179057   0.034163
    12  N   -0.103995   0.100119
    13  C   -0.176696  -0.038053
    14  C   -0.407345   0.079809
    15  S   -0.086848   0.063082
    16  H    0.119937  -0.009220
    17  H    0.139881   0.003800
    18  H    0.159302   0.010322
    19  H    0.138256  -0.001813
    20  H    0.118889   0.002228
    21  H    0.111388  -0.016559
    22  H    0.164563   0.002952
    23  H    0.125239  -0.019399
    24  H    0.116647   0.002559
    25  H    0.164700  -0.006543
 Sum of Mulliken charges =  -1.00000   1.00000

 Dipole moment (field-independent basis, Debye):
    X=             -1.6270    Y=             -1.9291    Z=             -0.2125  Tot=              2.5325
 Quadrupole moment (field-independent basis, Debye-Ang):
   XX=           -140.8715   YY=           -107.1657   ZZ=           -105.6547
   XY=             -4.0043   XZ=              1.7573   YZ=             -2.0448

 Summary of Natural Population Analysis:

                                       Natural Population
                Natural  -----------------------------------------------
    Atom  No    Charge         Core      Valence    Rydberg      Total
 -----------------------------------------------------------------------
      C    1   -0.08345      0.99957     2.07428    0.00960     3.08345
      C    2   -0.11685      0.99957     2.10809    0.00918     3.11685
      C    3   -0.06936      0.99953     2.06172    0.00812     3.06936
      C    4   -0.03933      0.99951     2.03095    0.00886     3.03933
      C    5   -0.07245      0.99953     2.06450    0.00842     3.07245
      C    6   -0.12182      0.99957     2.11301    0.00923     3.12182
      C    7   -0.00663      0.99954     1.99757    0.00952     3.00663
      C    8   -0.12027      0.99955     2.11057    0.01015     3.12027
      C    9    0.12130      0.99959     1.86525    0.01386     2.87870
      N   10   -0.24428      0.99963     2.73101    0.01363     3.74428
      C   11    0.13727      0.99962     1.84201    0.02111     2.86273
      N   12   -0.24796      0.99964     2.73398    0.01434     3.74796
      C   13   -0.03309      0.99956     2.01933    0.01419     3.03309
      C   14   -0.21080      0.99956     2.20085    0.01039     3.21080
      S   15    0.18014      4.99943     2.79749    0.02293     7.81986
      H   16    0.09090      0.00000     0.40809    0.00101     0.40910
      H   17    0.09559      0.00000     0.40343    0.00098     0.40441
      H   18    0.10536      0.00000     0.39326    0.00138     0.39464
      H   19    0.09313      0.00000     0.40542    0.00145     0.40687
      H   20    0.09280      0.00000     0.40616    0.00105     0.40720
      H   21    0.08366      0.00000     0.41479    0.00155     0.41634
      H   22    0.09458      0.00000     0.40331    0.00211     0.40542
      H   23    0.08100      0.00000     0.41714    0.00187     0.41900
      H   24    0.09004      0.00000     0.40871    0.00125     0.40996
      H   25    0.10052      0.00000     0.39829    0.00119     0.39948
 =======================================================================
   * Total *   -0.00000     18.99341    36.80922    0.19737    56.00000

 Normal termination of Gaussian 16 at Thu Dec 10 16:57:08 2020.
