 Gaussian 16, Revision A.03,

 -----------------------------------------------------------
 # opt freq B3LYP/6-31G(d) empiricaldispersion=gd3bj scf=xqc
 -----------------------------------------------------------

 -------------------------------
 CID_115919419_JID_5628_neutraal
 -------------------------------
 Symbolic Z-matrix:
 Charge =  0 Multiplicity = 1

 SCF Done:  E(RB3LYP) =  -656.492647559     A.U. after   13 cycles
 SCF Done:  E(RB3LYP) =  -656.491688631     A.U. after   12 cycles
 SCF Done:  E(RB3LYP) =  -656.500478896     A.U. after   11 cycles
 SCF Done:  E(RB3LYP) =  -656.497504946     A.U. after   11 cycles
 SCF Done:  E(RB3LYP) =  -656.501041763     A.U. after   10 cycles
 SCF Done:  E(RB3LYP) =  -656.501452096     A.U. after   11 cycles
 SCF Done:  E(RB3LYP) =  -656.501565536     A.U. after   10 cycles
 SCF Done:  E(RB3LYP) =  -656.501605937     A.U. after   10 cycles
 SCF Done:  E(RB3LYP) =  -656.501620638     A.U. after    8 cycles
 SCF Done:  E(RB3LYP) =  -656.501624971     A.U. after    7 cycles
 SCF Done:  E(RB3LYP) =  -656.501625117     A.U. after    7 cycles
 SCF Done:  E(RB3LYP) =  -656.501625256     A.U. after    6 cycles
 Optimization completed.
    -- Stationary point found.
 Normal termination of Gaussian 16 at Thu Dec 10 16:38:13 2020.

 --------------------------------------------------------------------
 #N Geom=AllCheck Guess=TCheck SCRF=Check GenChk RB3LYP/6-31G(d) Freq
 --------------------------------------------------------------------

 Structure from the checkpoint file:  "JID_5628.chk"
 -------------------------------
 CID_115919419_JID_5628_neutraal
 -------------------------------
 Charge =  0 Multiplicity = 1

 SCF Done:  E(RB3LYP) =  -656.501625256     A.U. after    1 cycles

  Exact polarizability: 156.870   1.045 131.018   0.434   1.363 123.608
 Approx polarizability: 195.748   1.068 192.423   0.998   0.237 184.218

                      1                      2                      3
                      A                      A                      A
 Frequencies --     66.9178                80.9693                96.6511
 Red. masses --      3.2796                 2.9969                 2.8437
 Frc consts  --      0.0087                 0.0116                 0.0157
 IR Inten    --      1.0440                 0.4222                 0.2508

                      4                      5                      6
                      A                      A                      A
 Frequencies --    103.1270               131.1158               169.7137
 Red. masses --      2.6045                 1.9876                 2.0398
 Frc consts  --      0.0163                 0.0201                 0.0346
 IR Inten    --      0.8482                 1.4819                 0.6927

                      7                      8                      9
                      A                      A                      A
 Frequencies --    177.2940               231.5722               235.1521
 Red. masses --      3.5186                 1.3485                 2.4020
 Frc consts  --      0.0652                 0.0426                 0.0783
 IR Inten    --      3.0745                 0.9409                 1.3996

                     10                     11                     12
                      A                      A                      A
 Frequencies --    244.1995               269.0027               303.1016
 Red. masses --      1.9799                 2.8501                 2.2810
 Frc consts  --      0.0696                 0.1215                 0.1235
 IR Inten    --      0.6721                 1.4495                 1.6746

                     13                     14                     15
                      A                      A                      A
 Frequencies --    320.9597               326.5657               368.9377
 Red. masses --      2.4477                 2.1014                 2.3114
 Frc consts  --      0.1486                 0.1320                 0.1854
 IR Inten    --      1.6616                 1.7093                 1.2683

                     16                     17                     18
                      A                      A                      A
 Frequencies --    387.5125               395.2516               423.0365
 Red. masses --      2.4865                 2.0917                 1.9618
 Frc consts  --      0.2200                 0.1925                 0.2069
 IR Inten    --      0.3539                 5.5293                 0.1654

                     19                     20                     21
                      A                      A                      A
 Frequencies --    472.0002               490.6401               539.0840
 Red. masses --      3.1678                 2.6188                 4.1340
 Frc consts  --      0.4158                 0.3714                 0.7078
 IR Inten    --     14.6835                 4.1045                 1.7050

                     22                     23                     24
                      A                      A                      A
 Frequencies --    583.6953               618.3407               690.7613
 Red. masses --      2.4654                 2.5703                 3.0863
 Frc consts  --      0.4949                 0.5790                 0.8677
 IR Inten    --      1.0113                 1.1175                10.0549

                     25                     26                     27
                      A                      A                      A
 Frequencies --    746.0345               753.7471               778.3794
 Red. masses --      3.4030                 1.3854                 1.7120
 Frc consts  --      1.1159                 0.4637                 0.6111
 IR Inten    --      6.4293                86.4937                 1.0712

                     28                     29                     30
                      A                      A                      A
 Frequencies --    783.5154               790.3427               805.9518
 Red. masses --      1.9234                 2.0445                 1.3305
 Frc consts  --      0.6957                 0.7524                 0.5092
 IR Inten    --      0.4836                41.2417                 1.2443

                     31                     32                     33
                      A                      A                      A
 Frequencies --    847.4186               867.9825               903.6842
 Red. masses --      2.9653                 4.2446                 2.3631
 Frc consts  --      1.2546                 1.8841                 1.1370
 IR Inten    --      7.2600                 3.0548                96.1563

                     34                     35                     36
                      A                      A                      A
 Frequencies --    922.2200               922.9199               941.6628
 Red. masses --      2.2969                 1.8739                 1.9040
 Frc consts  --      1.1510                 0.9404                 0.9948
 IR Inten    --     24.8097                 8.4748                 4.6896

                     37                     38                     39
                      A                      A                      A
 Frequencies --    947.7631               989.8879              1001.2369
 Red. masses --      1.8037                 2.0703                 1.8633
 Frc consts  --      0.9546                 1.1952                 1.1005
 IR Inten    --     29.9984                11.1078                 6.0361

                     40                     41                     42
                      A                      A                      A
 Frequencies --   1006.9102              1013.4050              1017.1714
 Red. masses --      1.8807                 1.9025                 1.7949
 Frc consts  --      1.1234                 1.1512                 1.0942
 IR Inten    --      5.0258                 6.1457                 2.6646

                     43                     44                     45
                      A                      A                      A
 Frequencies --   1050.8794              1063.8857              1073.3339
 Red. masses --      2.0074                 2.5654                 1.6433
 Frc consts  --      1.3062                 1.7108                 1.1154
 IR Inten    --     19.1479                16.2762                22.6028

                     46                     47                     48
                      A                      A                      A
 Frequencies --   1089.9298              1096.2919              1100.8193
 Red. masses --      1.7087                 2.2239                 1.9679
 Frc consts  --      1.1959                 1.5748                 1.4051
 IR Inten    --      2.4154                10.3082                 7.6281

                     49                     50                     51
                      A                      A                      A
 Frequencies --   1120.7822              1148.9129              1177.2457
 Red. masses --      2.4635                 2.3145                 1.7466
 Frc consts  --      1.8232                 1.8000                 1.4262
 IR Inten    --     19.5222                 6.3667                30.9475

                     52                     53                     54
                      A                      A                      A
 Frequencies --   1193.2350              1207.1739              1212.0689
 Red. masses --      1.8503                 1.6637                 1.8395
 Frc consts  --      1.5522                 1.4285                 1.5922
 IR Inten    --     17.6131                 7.4403                 0.5993

                     55                     56                     57
                      A                      A                      A
 Frequencies --   1216.9802              1221.6073              1244.4025
 Red. masses --      1.4587                 2.2077                 1.2702
 Frc consts  --      1.2728                 1.9411                 1.1588
 IR Inten    --      2.4033                 2.9654                 0.7577

                     58                     59                     60
                      A                      A                      A
 Frequencies --   1285.4505              1290.6994              1310.3634
 Red. masses --      1.2569                 1.3840                 1.3827
 Frc consts  --      1.2237                 1.3584                 1.3989
 IR Inten    --      1.0500                18.8089                 1.6835

                     61                     62                     63
                      A                      A                      A
 Frequencies --   1312.4388              1324.8409              1333.8255
 Red. masses --      1.1923                 1.2605                 1.2823
 Frc consts  --      1.2100                 1.3035                 1.3441
 IR Inten    --      2.8734                 5.5805                16.0392

                     64                     65                     66
                      A                      A                      A
 Frequencies --   1335.7357              1364.5234              1369.0858
 Red. masses --      1.2361                 1.3757                 1.3185
 Frc consts  --      1.2994                 1.5091                 1.4561
 IR Inten    --     20.3281                 6.9304                 0.9452

                     67                     68                     69
                      A                      A                      A
 Frequencies --   1378.8597              1384.2500              1388.6933
 Red. masses --      1.4850                 1.4492                 1.3230
 Frc consts  --      1.6635                 1.6361                 1.5033
 IR Inten    --      1.8430                 3.2892                 3.7538

                     70                     71                     72
                      A                      A                      A
 Frequencies --   1396.3729              1424.1259              1435.5664
 Red. masses --      1.3442                 1.4232                 1.2580
 Frc consts  --      1.5443                 1.7007                 1.5275
 IR Inten    --     12.2794                 4.8940                 3.0350

                     73                     74                     75
                      A                      A                      A
 Frequencies --   1441.8259              1449.5648              1452.0942
 Red. masses --      1.2542                 1.3573                 1.3932
 Frc consts  --      1.5362                 1.6803                 1.7309
 IR Inten    --      2.9911                 2.3502                 3.9256

                     76                     77                     78
                      A                      A                      A
 Frequencies --   1500.6083              1516.0256              1517.1178
 Red. masses --      1.2481                 1.0783                 1.1041
 Frc consts  --      1.6558                 1.4602                 1.4973
 IR Inten    --     23.1108                 3.8530                 8.2980

                     79                     80                     81
                      A                      A                      A
 Frequencies --   1521.9469              1529.9918              1533.5722
 Red. masses --      1.0717                 1.0967                 1.0524
 Frc consts  --      1.4627                 1.5126                 1.4583
 IR Inten    --      8.2008                 2.6853                 3.0097

                     82                     83                     84
                      A                      A                      A
 Frequencies --   1534.1808              1537.9223              1538.2219
 Red. masses --      1.0569                 1.0617                 1.0674
 Frc consts  --      1.4657                 1.4795                 1.4880
 IR Inten    --      9.4619                 1.5916                 1.6737

                     85                     86                     87
                      A                      A                      A
 Frequencies --   1545.6018              1552.1179              1554.9722
 Red. masses --      1.0741                 1.1048                 1.1051
 Frc consts  --      1.5118                 1.5682                 1.5744
 IR Inten    --      3.9802                 2.5730                 2.4426

                     88                     89                     90
                      A                      A                      A
 Frequencies --   2971.8048              2986.2506              3002.3333
 Red. masses --      1.0730                 1.0738                 1.0672
 Frc consts  --      5.5834                 5.6421                 5.6678
 IR Inten    --     91.0354               104.2818                47.7970

                     91                     92                     93
                      A                      A                      A
 Frequencies --   3017.8224              3024.5381              3037.2676
 Red. masses --      1.0711                 1.0759                 1.0686
 Frc consts  --      5.7473                 5.7987                 5.8080
 IR Inten    --     42.0693                70.2291                32.7645

                     94                     95                     96
                      A                      A                      A
 Frequencies --   3050.1577              3053.6449              3056.5664
 Red. masses --      1.0470                 1.0395                 1.0773
 Frc consts  --      5.7390                 5.7109                 5.9302
 IR Inten    --      4.0091                39.5347                40.4029

                     97                     98                     99
                      A                      A                      A
 Frequencies --   3066.5034              3084.7879              3090.8194
 Red. masses --      1.0689                 1.0861                 1.0945
 Frc consts  --      5.9220                 6.0891                 6.1602
 IR Inten    --     46.1011                33.4256                11.5547

                    100                    101                    102
                      A                      A                      A
 Frequencies --   3092.8491              3100.3529              3102.8965
 Red. masses --      1.0916                 1.0887                 1.0922
 Frc consts  --      6.1522                 6.1655                 6.1956
 IR Inten    --      4.7676                92.2351                45.5738

                    103                    104                    105
                      A                      A                      A
 Frequencies --   3103.3318              3105.3676              3113.2442
 Red. masses --      1.0924                 1.0991                 1.1000
 Frc consts  --      6.1983                 6.2446                 6.2814
 IR Inten    --      4.0448                 7.4446                50.8230

                    106                    107                    108
                      A                      A                      A
 Frequencies --   3121.3480              3124.3600              3138.6760
 Red. masses --      1.0972                 1.0999                 1.1017
 Frc consts  --      6.2981                 6.3261                 6.3942
 IR Inten    --     55.3247                34.3003                35.1567

                    109                    110                    111
                      A                      A                      A
 Frequencies --   3191.7842              3447.8350              3501.8566
 Red. masses --      1.0908                 1.0689                 1.0750
 Frc consts  --      6.5476                 7.4868                 7.7668
 IR Inten    --      2.4215               506.0113                 0.0850

 - Thermochemistry -
 -------------------
 Temperature   298.150 Kelvin.  Pressure   1.00000 Atm.
 Atom     1 has atomic number  6 and mass  12.00000

 Molecular mass:   212.18886 amu.
 Principal axes and moments of inertia in atomic units:
                           1         2         3
     Eigenvalues --  1741.194644507.489124607.67257
           X            0.99999   0.00268  -0.00350
           Y           -0.00240   0.99703   0.07698
           Z            0.00369  -0.07697   0.99703
 This molecule is an asymmetric top.
 Rotational symmetry number  1.
 Warning -- assumption of classical behavior for rotation
           may cause significant error
 Rotational temperatures (Kelvin)      0.04974     0.01922     0.01880
 Rotational constants (GHZ):           1.03650     0.40039     0.39168
 Zero-point vibrational energy     948820.4 (Joules/Mol)
                                  226.77351 (Kcal/Mol)
 Warning -- explicit consideration of  23 degrees of freedom as
           vibrations may cause significant error
 Vibrational temperatures:     96.28   116.50   139.06   148.38   188.65
          (Kelvin)            244.18   255.09   333.18   338.33   351.35
                              387.03   436.10   461.79   469.86   530.82
                              557.54   568.68   608.66   679.10   705.92
                              775.62   839.81   889.65   993.85  1073.38
                             1084.47  1119.91  1127.30  1137.13  1159.58
                             1219.25  1248.83  1300.20  1326.87  1327.88
                             1354.84  1363.62  1424.23  1440.56  1448.72
                             1458.06  1463.48  1511.98  1530.69  1544.29
                             1568.17  1577.32  1583.83  1612.56  1653.03
                             1693.79  1716.80  1736.85  1743.90  1750.96
                             1757.62  1790.42  1849.48  1857.03  1885.32
                             1888.31  1906.15  1919.08  1921.83  1963.24
                             1969.81  1983.87  1991.63  1998.02  2009.07
                             2049.00  2065.46  2074.47  2085.60  2089.24
                             2159.04  2181.22  2182.79  2189.74  2201.32
                             2206.47  2207.34  2212.73  2213.16  2223.78
                             2233.15  2237.26  4275.76  4296.55  4319.69
                             4341.97  4351.64  4369.95  4388.50  4393.51
                             4397.72  4412.01  4438.32  4447.00  4449.92
                             4460.72  4464.38  4465.00  4467.93  4479.26
                             4490.92  4495.26  4515.85  4592.27  4960.67
                             5038.39

 Zero-point correction=                           0.361387 (Hartree/Particle)
 Thermal correction to Energy=                    0.376282
 Thermal correction to Enthalpy=                  0.377226
 Thermal correction to Gibbs Free Energy=         0.320705
 Sum of electronic and zero-point Energies=           -656.140239
 Sum of electronic and thermal Energies=              -656.125343
 Sum of electronic and thermal Enthalpies=            -656.124399
 Sum of electronic and thermal Free Energies=         -656.180920

                     E (Thermal)             CV                S
                      KCal/Mol        Cal/Mol-Kelvin    Cal/Mol-Kelvin
 Total                  236.121             60.125            118.959
 Electronic               0.000              0.000              0.000
 Translational            0.889              2.981             41.960
 Rotational               0.889              2.981             31.959
 Vibrational            234.343             54.163             45.040
 Vibration     1          0.598              1.970              4.242
 Vibration     2          0.600              1.962              3.867
 Vibration     3          0.603              1.952              3.521
 Vibration     4          0.605              1.947              3.394
 Vibration     5          0.612              1.922              2.930
 Vibration     6          0.625              1.880              2.439
 Vibration     7          0.628              1.870              2.357
 Vibration     8          0.653              1.793              1.867
 Vibration     9          0.655              1.787              1.839
 Vibration    10          0.660              1.772              1.772
 Vibration    11          0.673              1.730              1.603
 Vibration    12          0.695              1.668              1.400
 Vibration    13          0.706              1.633              1.305
 Vibration    14          0.710              1.622              1.277
 Vibration    15          0.741              1.536              1.084
 Vibration    16          0.756              1.497              1.010
 Vibration    17          0.762              1.480              0.980
 Vibration    18          0.785              1.420              0.882
 Vibration    19          0.829              1.312              0.732
 Vibration    20          0.846              1.271              0.682
 Vibration    21          0.894              1.164              0.567
 Vibration    22          0.941              1.067              0.479
 Vibration    23          0.978              0.993              0.419

 Optimization completed.
    -- Stationary point found.
 Normal termination of Gaussian 16 at Thu Dec 10 16:55:21 2020.

 ----------------------------------------------------------------------
 # B3LYP/6-311++G(d,p) empiricaldispersion=gd3bj scf=xqc pop=npa geom=c
 heck
 ----------------------------------------------------------------------

 ---------------------------------------
 CID_115919419_JID_5628_Energie_neutraal
 ---------------------------------------
 Structure from the checkpoint file:  "JID_5628.chk"
 Charge =  0 Multiplicity = 1

 SCF Done:  E(RB3LYP) =  -656.691130165     A.U. after   13 cycles
 Normal termination of Gaussian 16 at Thu Dec 10 17:04:19 2020.

 ----------------------------------------------------------------------
 # B3LYP/6-311++G(d,p) empiricaldispersion=gd3bj scf=xqc pop=npa geom=c
 heck
 ----------------------------------------------------------------------

 -------------------------------------
 CID_115919419_JID_5628_Energie_kation
 -------------------------------------
 Structure from the checkpoint file:  "JID_5628.chk"
 Charge =  1 Multiplicity = 2

 SCF Done:  E(UB3LYP) =  -656.415999718     A.U. after   23 cycles
 Normal termination of Gaussian 16 at Thu Dec 10 17:25:25 2020.
 Gaussian 16:  ES64L-G16RevA.03 25-Dec-2016

 ----------------------------------------------------------------------
 # B3LYP/6-311++G(d,p) empiricaldispersion=gd3bj scf=xqc pop=npa geom=c
 heck
 ----------------------------------------------------------------------

 ------------------------------------
 CID_115919419_JID_5628_Energie_anion
 ------------------------------------
 Structure from the checkpoint file:  "JID_5628.chk"
 Charge = -1 Multiplicity = 2

                         Standard orientation:
 ---------------------------------------------------------------------
 Center     Atomic      Atomic             Coordinates (Angstroms)
 Number     Number       Type             X           Y           Z
 ---------------------------------------------------------------------
      1          6           0        3.305691   -1.803339   -0.110574
      2          6           0        2.277565   -0.900239   -0.796664
      3          6           0        1.506177    0.015402    0.169476
      4          6           0        2.453263    0.972261    0.937422
      5          6           0        3.415462    1.825848    0.105500
      6          6           0        0.442240    0.857928   -0.552670
      7          7           0       -0.524700    0.163573   -1.420214
      8          6           0       -1.058881   -1.158710   -1.053643
      9          6           0       -2.432523   -0.967091   -0.342447
     10          6           0       -2.388051   -1.133224    1.180574
     11          7           0       -1.847051    0.159707    1.630204
     12          6           0       -2.586152    1.171789    0.847137
     13          6           0       -2.756433    0.543838   -0.561347
     14          6           0       -1.726596    0.973278   -1.633525
     15          8           0        0.871513   -0.813860    1.158373
     16          1           0        4.122580   -1.228049    0.339272
     17          1           0        3.750621   -2.498879   -0.830982
     18          1           0        2.829840   -2.386930    0.682910
     19          1           0        2.766005   -0.273572   -1.552666
     20          1           0        1.560569   -1.519539   -1.341616
     21          1           0        1.825840    1.625687    1.559217
     22          1           0        3.022566    0.352836    1.638152
     23          1           0        2.889355    2.460341   -0.616470
     24          1           0        3.998976    2.486874    0.756376
     25          1           0        4.125287    1.206853   -0.453454
     26          1           0       -0.055669    1.440388    0.237575
     27          1           0        0.955263    1.587569   -1.191294
     28          1           0       -1.221528   -1.718951   -1.984552
     29          1           0       -0.355609   -1.713282   -0.438451
     30          1           0       -3.187855   -1.626347   -0.779149
     31          1           0       -1.739135   -1.952508    1.505395
     32          1           0       -3.403401   -1.319242    1.571842
     33          1           0       -1.983383    0.296571    2.629930
     34          1           0       -2.041300    2.120907    0.832317
     35          1           0       -3.580036    1.365824    1.282201
     36          1           0       -3.777406    0.709659   -0.917510
     37          1           0       -1.488995    2.041615   -1.610275
     38          1           0       -2.142946    0.750077   -2.626784
     39          1           0        0.049940   -0.346420    1.435666
 ---------------------------------------------------------------------

 SCF Done:  E(UB3LYP) =  -656.679596001     A.U. after   27 cycles

 The electronic state is 2-A.
 Alpha  occ. eigenvalues --  -18.99905 -14.20367 -14.19450 -10.12535 -10.08753
 Alpha  occ. eigenvalues --  -10.08699 -10.08655 -10.08627 -10.07819 -10.07202
 Alpha  occ. eigenvalues --  -10.06844 -10.06804 -10.06731 -10.06649 -10.06602
 Alpha  occ. eigenvalues --   -0.90843  -0.83295  -0.80664  -0.70733  -0.67162
 Alpha  occ. eigenvalues --   -0.65698  -0.64212  -0.61240  -0.58099  -0.55618
 Alpha  occ. eigenvalues --   -0.53236  -0.50357  -0.46703  -0.45402  -0.45088
 Alpha  occ. eigenvalues --   -0.41942  -0.40132  -0.38291  -0.38115  -0.36248
 Alpha  occ. eigenvalues --   -0.34701  -0.33781  -0.32633  -0.32058  -0.31851
 Alpha  occ. eigenvalues --   -0.31583  -0.31180  -0.29156  -0.28414  -0.27779
 Alpha  occ. eigenvalues --   -0.27766  -0.26443  -0.26002  -0.25533  -0.24644
 Alpha  occ. eigenvalues --   -0.23974  -0.23430  -0.22819  -0.22461  -0.21687
 Alpha  occ. eigenvalues --   -0.20606  -0.15837  -0.14165  -0.10471   0.04296
 Alpha virt. eigenvalues --    0.06124   0.07152   0.07425   0.08221   0.08709
 Alpha virt. eigenvalues --    0.08729   0.09651   0.09905   0.10747   0.11095
 Alpha virt. eigenvalues --    0.11265   0.11467   0.11666   0.12802   0.13161

  Beta  occ. eigenvalues --  -18.99903 -14.20340 -14.19451 -10.12535 -10.08742
  Beta  occ. eigenvalues --  -10.08663 -10.08631 -10.08614 -10.07809 -10.07188
  Beta  occ. eigenvalues --  -10.06836 -10.06790 -10.06727 -10.06639 -10.06597
  Beta  occ. eigenvalues --   -0.90840  -0.83269  -0.80637  -0.70722  -0.67124
  Beta  occ. eigenvalues --   -0.65685  -0.64170  -0.61215  -0.58053  -0.55588
  Beta  occ. eigenvalues --   -0.53213  -0.50299  -0.46650  -0.45382  -0.45060
  Beta  occ. eigenvalues --   -0.41845  -0.40117  -0.38253  -0.38103  -0.36225
  Beta  occ. eigenvalues --   -0.34685  -0.33767  -0.32576  -0.32021  -0.31838
  Beta  occ. eigenvalues --   -0.31569  -0.31156  -0.29131  -0.28383  -0.27762
  Beta  occ. eigenvalues --   -0.27736  -0.26425  -0.25984  -0.25515  -0.24621
  Beta  occ. eigenvalues --   -0.23953  -0.23416  -0.22779  -0.22431  -0.21656
  Beta  occ. eigenvalues --   -0.20589  -0.15831  -0.14108  -0.10457
  Beta virt. eigenvalues --    0.06119   0.07134   0.07397   0.07993   0.08833
  Beta virt. eigenvalues --    0.09078   0.09268   0.09958   0.10186   0.11043
  Beta virt. eigenvalues --    0.11440   0.11602   0.11707   0.11926   0.13163

 Mulliken charges and spin densities:
               1          2
     1  C   -0.400465  -0.196759
     2  C   -0.231554   0.125091
     3  C   -0.210487  -0.030447
     4  C   -0.447923   0.410768
     5  C   -0.052277  -0.580640
     6  C   -0.651113  -0.167490
     7  N    0.253122   0.075396
     8  C    0.229411  -0.656496
     9  C   -0.267540   0.438744
    10  C    0.671390  -1.304640
    11  N   -0.431669   0.107375
    12  C    1.335340  -1.970866
    13  C   -0.418250   0.858227
    14  C    0.544725  -1.072704
    15  O   -0.175194   0.000141
    16  H    0.132724  -0.011665
    17  H    0.081054   0.047477
    18  H    0.103242   0.070600
    19  H    0.058958   0.096296
    20  H    0.083096   0.060115
    21  H   -0.143474   0.283177
    22  H    0.076379   0.101873
    23  H   -0.064711   0.196703
    24  H   -0.059440   0.196050
    25  H    0.073133   0.065951
    26  H    0.581225  -0.481104
    27  H    0.234256  -0.036873
    28  H    0.017892   0.140467
    29  H    0.290741  -0.125255
    30  H   -0.407156   0.659086
    31  H    0.004188   0.148159
    32  H   -0.512638   0.679054
    33  H   -0.072064   0.354584
    34  H   -0.406545   0.554916
    35  H   -0.744804   0.919782
    36  H   -0.447602   0.695265
    37  H   -0.214849   0.355746
    38  H    0.020894   0.126074
    39  H    0.567986  -0.132179
 Sum of Mulliken charges =  -1.00000   1.00000

 Dipole moment (field-independent basis, Debye):
    X=              8.0988    Y=             -1.4357    Z=             -2.4499  Tot=              8.5822
 Quadrupole moment (field-independent basis, Debye-Ang):
   XX=           -177.8899   YY=           -134.3627   ZZ=           -137.8289
   XY=              1.1917   XZ=              6.7073   YZ=             -2.3363

 Summary of Natural Population Analysis:

                                       Natural Population
                Natural  -----------------------------------------------
    Atom  No    Charge         Core      Valence    Rydberg      Total
 -----------------------------------------------------------------------
      C    1   -0.28800      0.99966     2.28380    0.00454     3.28800
      C    2   -0.19934      0.99958     2.19107    0.00869     3.19934
      C    3    0.13281      0.99951     1.85249    0.01519     2.86719
      C    4   -0.20142      0.99959     2.19061    0.01123     3.20142
      C    5   -0.28866      0.99966     2.28448    0.00452     3.28866
      C    6   -0.09447      0.99953     2.08263    0.01231     3.09447
      N    7   -0.28612      0.99973     2.77339    0.01299     3.78612
      C    8   -0.09379      0.99960     2.08213    0.01207     3.09379
      C    9   -0.12039      0.99959     2.10883    0.01197     3.12039
      C   10   -0.08600      0.99960     2.07474    0.01166     3.08600
      N   11   -0.36104      0.99975     2.84690    0.01438     3.86104
      C   12   -0.08611      0.99961     2.07435    0.01215     3.08611
      C   13   -0.12123      0.99959     2.10942    0.01222     3.12123
      C   14   -0.08049      0.99960     2.06927    0.01161     3.08049
      O   15   -0.40346      0.99989     3.39704    0.00653     4.40346
      H   16    0.09306      0.00000     0.40607    0.00087     0.40694
      H   17    0.09411      0.00000     0.40501    0.00088     0.40589
      H   18    0.10592      0.00000     0.39303    0.00104     0.39408
      H   19    0.09665      0.00000     0.40229    0.00107     0.40335
      H   20    0.10445      0.00000     0.39422    0.00133     0.39555
      H   21    0.09914      0.00000     0.39963    0.00123     0.40086
      H   22    0.10182      0.00000     0.39707    0.00111     0.39818
      H   23    0.09698      0.00000     0.40189    0.00113     0.40302
      H   24    0.09846      0.00000     0.40067    0.00087     0.40154
      H   25    0.09497      0.00000     0.40401    0.00102     0.40503
      H   26    0.08909      0.00000     0.40843    0.00247     0.41091
      H   27    0.09506      0.00000     0.40327    0.00167     0.40494
      H   28    0.09078      0.00000     0.40807    0.00114     0.40922
      H   29    0.11078      0.00000     0.38759    0.00164     0.38922
      H   30    0.10527      0.00000     0.39307    0.00166     0.39473
      H   31    0.09607      0.00000     0.40294    0.00098     0.40393
      H   32    0.08900      0.00000     0.40863    0.00237     0.41100
      H   33    0.18441      0.00000     0.31238    0.00321     0.31559
      H   34    0.09372      0.00000     0.40468    0.00159     0.40628
      H   35    0.09328      0.00000     0.40240    0.00431     0.40672
      H   36    0.10709      0.00000     0.39051    0.00241     0.39291
      H   37    0.09662      0.00000     0.40241    0.00097     0.40338
      H   38    0.09299      0.00000     0.40583    0.00118     0.40701
      H   39    0.24796      0.00000     0.24795    0.00409     0.25204
 =======================================================================
   * Total *   -0.00000     14.99449    43.80320    0.20230    59.00000

 Normal termination of Gaussian 16 at Thu Dec 10 17:47:16 2020.
