 Gaussian 16, Revision A.03,

 -----------------------------------------------------------
 # opt freq B3LYP/6-31G(d) empiricaldispersion=gd3bj scf=xqc
 -----------------------------------------------------------

 -------------------------------
 CID_106935083_JID_6158_neutraal
 -------------------------------
 Symbolic Z-matrix:
 Charge =  0 Multiplicity = 1

 SCF Done:  E(RB3LYP) =  -707.013628846     A.U. after   15 cycles
 SCF Done:  E(RB3LYP) =  -707.019586241     A.U. after   12 cycles
 SCF Done:  E(RB3LYP) =  -707.018731141     A.U. after   14 cycles
 SCF Done:  E(RB3LYP) =  -707.020719513     A.U. after   11 cycles
 SCF Done:  E(RB3LYP) =  -707.020875002     A.U. after   12 cycles
 SCF Done:  E(RB3LYP) =  -707.021133623     A.U. after   12 cycles
 SCF Done:  E(RB3LYP) =  -707.020934063     A.U. after   12 cycles
 SCF Done:  E(RB3LYP) =  -707.021184651     A.U. after   12 cycles
 SCF Done:  E(RB3LYP) =  -707.021278576     A.U. after   11 cycles
 SCF Done:  E(RB3LYP) =  -707.021287391     A.U. after    9 cycles
 SCF Done:  E(RB3LYP) =  -707.021422166     A.U. after   10 cycles
 SCF Done:  E(RB3LYP) =  -707.021422395     A.U. after    8 cycles
 SCF Done:  E(RB3LYP) =  -707.021422443     A.U. after    7 cycles
 SCF Done:  E(RB3LYP) =  -707.021422432     A.U. after    7 cycles
 Optimization completed.
    -- Stationary point found.
 Normal termination of Gaussian 16 at Thu Dec 10 21:33:19 2020.

 --------------------------------------------------------------------
 #N Geom=AllCheck Guess=TCheck SCRF=Check GenChk RB3LYP/6-31G(d) Freq
 --------------------------------------------------------------------

 Structure from the checkpoint file:  "JID_6158.chk"
 -------------------------------
 CID_106935083_JID_6158_neutraal
 -------------------------------
 Charge =  0 Multiplicity = 1

 SCF Done:  E(RB3LYP) =  -707.021422432     A.U. after    1 cycles

  Exact polarizability: 168.045  -7.233 140.808  10.161   5.342 111.164
 Approx polarizability: 239.293 -25.172 227.355  22.630  14.088 167.470

                      1                      2                      3
                      A                      A                      A
 Frequencies --     30.8751                38.1485                57.6637
 Red. masses --      3.8931                 3.1129                 4.4618
 Frc consts  --      0.0022                 0.0027                 0.0087
 IR Inten    --      1.9229                 1.0767                 0.7178

                      4                      5                      6
                      A                      A                      A
 Frequencies --     63.7001                69.3136               106.3665
 Red. masses --      1.2746                 4.1548                 3.0746
 Frc consts  --      0.0030                 0.0118                 0.0205
 IR Inten    --      0.0941                 1.1322                 0.5413

                      7                      8                      9
                      A                      A                      A
 Frequencies --    110.0305               151.4364               165.2518
 Red. masses --      3.9846                 3.2364                 3.3725
 Frc consts  --      0.0284                 0.0437                 0.0543
 IR Inten    --      2.3781                 1.1044                 2.9694

                     10                     11                     12
                      A                      A                      A
 Frequencies --    229.4097               267.0113               270.9393
 Red. masses --      2.9228                 4.0189                 1.2487
 Frc consts  --      0.0906                 0.1688                 0.0540
 IR Inten    --      1.3968                 3.9465                32.5361

                     13                     14                     15
                      A                      A                      A
 Frequencies --    281.8798               322.8871               348.0175
 Red. masses --      2.8815                 2.6491                 3.5546
 Frc consts  --      0.1349                 0.1627                 0.2537
 IR Inten    --      4.3109                14.0949                 6.0649

                     16                     17                     18
                      A                      A                      A
 Frequencies --    392.2645               401.0728               413.2029
 Red. masses --      3.0084                 2.8588                 5.0685
 Frc consts  --      0.2727                 0.2709                 0.5099
 IR Inten    --      2.3375                 0.9959                 9.5927

                     19                     20                     21
                      A                      A                      A
 Frequencies --    444.6107               485.7424               508.8731
 Red. masses --      4.8048                 3.5283                 3.1957
 Frc consts  --      0.5596                 0.4905                 0.4876
 IR Inten    --      4.4116                 3.5210                15.9848

                     22                     23                     24
                      A                      A                      A
 Frequencies --    590.6201               620.2701               683.8283
 Red. masses --      3.1347                 3.1475                 5.6507
 Frc consts  --      0.6443                 0.7135                 1.5569
 IR Inten    --     29.4160                 8.3194                 8.7753

                     25                     26                     27
                      A                      A                      A
 Frequencies --    686.5655               765.9490               770.0322
 Red. masses --      6.4926                 3.2262                 1.7193
 Frc consts  --      1.8031                 1.1152                 0.6007
 IR Inten    --      7.2112                 6.0699                 9.4447

                     28                     29                     30
                      A                      A                      A
 Frequencies --    804.2321               824.1700               841.0083
 Red. masses --      2.9972                 1.3670                 1.3969
 Frc consts  --      1.1422                 0.5471                 0.5821
 IR Inten    --      2.2441                 6.8610                23.3245

                     31                     32                     33
                      A                      A                      A
 Frequencies --    852.9178               888.9722               915.6009
 Red. masses --      1.5234                 1.2356                 1.7682
 Frc consts  --      0.6530                 0.5753                 0.8734
 IR Inten    --      7.5081                 0.1676               108.3196

                     34                     35                     36
                      A                      A                      A
 Frequencies --    939.4636               946.8840               959.8298
 Red. masses --      2.8545                 2.9627                 2.5147
 Frc consts  --      1.4844                 1.5651                 1.3650
 IR Inten    --     12.0496                48.8755                23.3173

                     37                     38                     39
                      A                      A                      A
 Frequencies --    979.5668               981.0503               995.0969
 Red. masses --      1.8462                 1.3464                 1.4420
 Frc consts  --      1.0437                 0.7635                 0.8413
 IR Inten    --     14.1684                 2.9277                 0.4425

                     40                     41                     42
                      A                      A                      A
 Frequencies --   1016.7381              1026.6917              1067.4447
 Red. masses --      7.0312                 1.8605                 1.3159
 Frc consts  --      4.2825                 1.1555                 0.8834
 IR Inten    --      5.8562                17.7649                21.7641

                     43                     44                     45
                      A                      A                      A
 Frequencies --   1074.1107              1091.0359              1097.0652
 Red. masses --      2.9825                 1.3692                 1.8121
 Frc consts  --      2.0274                 0.9603                 1.2850
 IR Inten    --     23.8397                 8.6663                 3.2091

                     46                     47                     48
                      A                      A                      A
 Frequencies --   1116.0047              1123.8364              1149.2434
 Red. masses --      1.5101                 2.2557                 1.3242
 Frc consts  --      1.1081                 1.6785                 1.0305
 IR Inten    --      1.1786                 6.5330                36.4824

                     49                     50                     51
                      A                      A                      A
 Frequencies --   1150.5892              1162.0675              1184.8788
 Red. masses --      1.4080                 1.3323                 1.8148
 Frc consts  --      1.0982                 1.0600                 1.5011
 IR Inten    --     66.7681                 4.9294                23.4438

                     52                     53                     54
                      A                      A                      A
 Frequencies --   1204.2894              1212.9505              1233.9545
 Red. masses --      1.4347                 1.3875                 2.0114
 Frc consts  --      1.2259                 1.2028                 1.8045
 IR Inten    --      6.6277                 0.2597                 2.4827

                     55                     56                     57
                      A                      A                      A
 Frequencies --   1252.5887              1271.3042              1292.1750
 Red. masses --      1.3109                 1.5543                 5.2629
 Frc consts  --      1.2118                 1.4801                 5.1775
 IR Inten    --      6.7071                16.5045                17.0122

                     58                     59                     60
                      A                      A                      A
 Frequencies --   1313.7603              1337.0273              1365.9636
 Red. masses --      2.6607                 1.8621                 1.6070
 Frc consts  --      2.7057                 1.9613                 1.7667
 IR Inten    --     29.1780                49.2309                 6.5623

                     61                     62                     63
                      A                      A                      A
 Frequencies --   1375.5567              1412.0967              1423.0863
 Red. masses --      1.7287                 1.6545                 1.7881
 Frc consts  --      1.9272                 1.9438                 2.1335
 IR Inten    --     15.6476                68.2559               105.2725

                     64                     65                     66
                      A                      A                      A
 Frequencies --   1445.3020              1458.3691              1462.8865
 Red. masses --      1.4730                 1.4780                 1.6280
 Frc consts  --      1.8129                 1.8521                 2.0527
 IR Inten    --      6.3560                19.3969                20.5960

                     67                     68                     69
                      A                      A                      A
 Frequencies --   1496.6785              1510.2654              1521.1152
 Red. masses --      1.0894                 1.1055                 1.0675
 Frc consts  --      1.4378                 1.4857                 1.4552
 IR Inten    --      0.7948                11.0888                16.2165

                     70                     71                     72
                      A                      A                      A
 Frequencies --   1535.2513              1537.9075              1550.0553
 Red. masses --      1.3421                 1.2229                 1.8074
 Frc consts  --      1.8638                 1.7041                 2.5585
 IR Inten    --      1.1526                 2.7910                46.2714

                     73                     74                     75
                      A                      A                      A
 Frequencies --   1619.7561              1647.0345              1699.3344
 Red. masses --      7.3903                 5.3951                 1.0903
 Frc consts  --     11.4239                 8.6229                 1.8551
 IR Inten    --     37.1230               153.5379                21.7479

                     76                     77                     78
                      A                      A                      A
 Frequencies --   1757.6539              3053.8737              3072.3157
 Red. masses --     10.0888                 1.0416                 1.0782
 Frc consts  --     18.3635                 5.7233                 5.9964
 IR Inten    --    272.5317                42.4044                 2.1616

                     79                     80                     81
                      A                      A                      A
 Frequencies --   3073.2052              3119.5215              3121.1080
 Red. masses --      1.0692                 1.0990                 1.0885
 Frc consts  --      5.9498                 6.3014                 6.2474
 IR Inten    --      8.1798                21.3489                12.6594

                     82                     83                     84
                      A                      A                      A
 Frequencies --   3128.8729              3140.3236              3148.4334
 Red. masses --      1.0972                 1.0534                 1.0592
 Frc consts  --      6.3287                 6.1207                 6.1859
 IR Inten    --     32.6870                20.7650                10.8022

                     85                     86                     87
                      A                      A                      A
 Frequencies --   3175.3736              3179.0203              3195.5739
 Red. masses --      1.0887                 1.0910                 1.0994
 Frc consts  --      6.4678                 6.4959                 6.6145
 IR Inten    --     31.0586                19.0242                 0.6312

                     88                     89                     90
                      A                      A                      A
 Frequencies --   3215.9066              3218.3929              3235.6835
 Red. masses --      1.0940                 1.1180                 1.0950
 Frc consts  --      6.6661                 6.8228                 6.7547
 IR Inten    --      7.7321                 7.3188                 4.2993

                     91                     92                     93
                      A                      A                      A
 Frequencies --   3237.3976              3441.2637              3527.3641
 Red. masses --      1.1129                 1.0502                 1.0907
 Frc consts  --      6.8723                 7.3279                 7.9958
 IR Inten    --      8.2064                 2.2429                 1.0338

 - Thermochemistry -
 -------------------
 Temperature   298.150 Kelvin.  Pressure   1.00000 Atm.
 Atom     1 has atomic number  6 and mass  12.00000

 Molecular mass:   219.13716 amu.
 Principal axes and moments of inertia in atomic units:
                           1         2         3
     Eigenvalues --  2326.833984977.911255759.76000
           X            0.99943   0.03341   0.00539
           Y           -0.03334   0.99937  -0.01243
           Z           -0.00580   0.01224   0.99991
 This molecule is an asymmetric top.
 Rotational symmetry number  1.
 Warning -- assumption of classical behavior for rotation
           may cause significant error
 Rotational temperatures (Kelvin)      0.03722     0.01740     0.01504
 Rotational constants (GHZ):           0.77562     0.36255     0.31334
 Zero-point vibrational energy     739797.3 (Joules/Mol)
                                  176.81581 (Kcal/Mol)
 Warning -- explicit consideration of  23 degrees of freedom as
           vibrations may cause significant error
 Vibrational temperatures:     44.42    54.89    82.97    91.65    99.73
          (Kelvin)            153.04   158.31   217.88   237.76   330.07
                              384.17   389.82   405.56   464.56   500.72
                              564.38   577.05   594.51   639.70   698.87
                              732.15   849.77   892.43   983.88   987.81
                             1102.03  1107.90  1157.11  1185.80  1210.02
                             1227.16  1279.03  1317.35  1351.68  1362.35
                             1380.98  1409.38  1411.51  1431.72  1462.86
                             1477.18  1535.81  1545.41  1569.76  1578.43
                             1605.68  1616.95  1653.50  1655.44  1671.96
                             1704.78  1732.70  1745.17  1775.39  1802.20
                             1829.12  1859.15  1890.21  1923.68  1965.32
                             1979.12  2031.69  2047.50  2079.47  2098.27
                             2104.77  2153.39  2172.94  2188.55  2208.88
                             2212.71  2230.18  2330.47  2369.72  2444.96
                             2528.87  4393.84  4420.38  4421.66  4488.30
                             4490.58  4501.75  4518.23  4529.89  4568.65
                             4573.90  4597.72  4626.97  4630.55  4655.43
                             4657.89  4951.21  5075.09

 Zero-point correction=                           0.281774 (Hartree/Particle)
 Thermal correction to Energy=                    0.297594
 Thermal correction to Enthalpy=                  0.298538
 Thermal correction to Gibbs Free Energy=         0.237009
 Sum of electronic and zero-point Energies=           -706.739649
 Sum of electronic and thermal Energies=              -706.723829
 Sum of electronic and thermal Enthalpies=            -706.722885
 Sum of electronic and thermal Free Energies=         -706.784414

                     E (Thermal)             CV                S
                      KCal/Mol        Cal/Mol-Kelvin    Cal/Mol-Kelvin
 Total                  186.743             58.982            129.499
 Electronic               0.000              0.000              0.000
 Translational            0.889              2.981             42.057
 Rotational               0.889              2.981             32.567
 Vibrational            184.965             53.020             54.875
 Vibration     1          0.594              1.984              5.772
 Vibration     2          0.594              1.982              5.353
 Vibration     3          0.596              1.974              4.536
 Vibration     4          0.597              1.972              4.339
 Vibration     5          0.598              1.969              4.173
 Vibration     6          0.605              1.944              3.334
 Vibration     7          0.606              1.941              3.268
 Vibration     8          0.619              1.901              2.654
 Vibration     9          0.624              1.885              2.489
 Vibration    10          0.652              1.796              1.884
 Vibration    11          0.672              1.734              1.615
 Vibration    12          0.675              1.727              1.590
 Vibration    13          0.681              1.707              1.522
 Vibration    14          0.708              1.630              1.295
 Vibration    15          0.726              1.579              1.175
 Vibration    16          0.760              1.487              0.992
 Vibration    17          0.767              1.468              0.959
 Vibration    18          0.777              1.442              0.915
 Vibration    19          0.804              1.373              0.812
 Vibration    20          0.842              1.282              0.695
 Vibration    21          0.864              1.230              0.636
 Vibration    22          0.948              1.052              0.466
 Vibration    23          0.980              0.989              0.416

 Optimization completed.
    -- Stationary point found.
 Normal termination of Gaussian 16 at Thu Dec 10 21:45:00 2020.

 ----------------------------------------------------------------------
 # B3LYP/6-311++G(d,p) empiricaldispersion=gd3bj scf=xqc pop=npa geom=c
 heck
 ----------------------------------------------------------------------

 ---------------------------------------
 CID_106935083_JID_6158_Energie_neutraal
 ---------------------------------------
 Structure from the checkpoint file:  "JID_6158.chk"
 Charge =  0 Multiplicity = 1

 SCF Done:  E(RB3LYP) =  -707.221265959     A.U. after   16 cycles
 Normal termination of Gaussian 16 at Thu Dec 10 21:50:52 2020.

 ----------------------------------------------------------------------
 # B3LYP/6-311++G(d,p) empiricaldispersion=gd3bj scf=xqc pop=npa geom=c
 heck
 ----------------------------------------------------------------------

 -------------------------------------
 CID_106935083_JID_6158_Energie_kation
 -------------------------------------
 Structure from the checkpoint file:  "JID_6158.chk"
 Charge =  1 Multiplicity = 2

 SCF Done:  E(UB3LYP) =  -706.905353489     A.U. after   33 cycles
 SCF Done:  E(UB3LYP) =  -706.905353489     a.u. after    1 cycles
 Normal termination of Gaussian 16 at Thu Dec 10 22:08:31 2020.
 Gaussian 16:  ES64L-G16RevA.03 25-Dec-2016

 ----------------------------------------------------------------------
 # B3LYP/6-311++G(d,p) empiricaldispersion=gd3bj scf=xqc pop=npa geom=c
 heck
 ----------------------------------------------------------------------

 ------------------------------------
 CID_106935083_JID_6158_Energie_anion
 ------------------------------------
 Structure from the checkpoint file:  "JID_6158.chk"
 Charge = -1 Multiplicity = 2

                         Standard orientation:
 ---------------------------------------------------------------------
 Center     Atomic      Atomic             Coordinates (Angstroms)
 Number     Number       Type             X           Y           Z
 ---------------------------------------------------------------------
      1          6           0        1.299474    2.588619   -0.850315
      2          7           0        0.828475    1.435220   -0.081219
      3          6           0        1.685480    0.299899   -0.052568
      4          6           0        2.910600    0.350405    0.616540
      5          6           0        3.733619   -0.774401    0.586100
      6          7           0        3.421388   -1.913139   -0.045664
      7          6           0        2.246617   -1.945387   -0.686801
      8          6           0        1.354454   -0.875001   -0.733184
      9          6           0       -0.474923    1.441626    0.385965
     10          8           0       -1.232062    2.373567    0.137205
     11          6           0       -0.918406    0.310298    1.302206
     12          6           0       -2.293413   -0.240028    0.896973
     13          6           0       -2.242692   -0.996299   -0.421800
     14          6           0       -3.477860   -1.074366   -1.282858
     15          6           0       -2.292255   -0.260380   -1.741688
     16          7           0       -2.822315   -1.036468    2.014000
     17          1           0        1.336936    2.352942   -1.920772
     18          1           0        2.301173    2.875926   -0.518833
     19          1           0        0.599702    3.406663   -0.687080
     20          1           0        3.205869    1.241872    1.160424
     21          1           0        4.690329   -0.762286    1.104683
     22          1           0        2.007948   -2.874610   -1.201031
     23          1           0        0.420063   -0.942382   -1.278365
     24          1           0       -0.184081   -0.496329    1.368106
     25          1           0       -1.015695    0.744692    2.303920
     26          1           0       -2.955435    0.624652    0.773473
     27          1           0       -1.623167   -1.893816   -0.388884
     28          1           0       -3.696269   -2.005193   -1.798421
     29          1           0       -4.360139   -0.532676   -0.949112
     30          1           0       -2.369066    0.821708   -1.704742
     31          1           0       -1.702477   -0.640651   -2.572010
     32          1           0       -3.740088   -1.394891    1.749983
     33          1           0       -2.236120   -1.863352    2.139789
 ---------------------------------------------------------------------

 SCF Done:  E(UB3LYP) =  -707.218869550     A.U. after   33 cycles
 SCF Done:  E(UB3LYP) =  -707.218869550     a.u. after    1 cycles

 The electronic state is 2-A.
 Alpha  occ. eigenvalues --  -18.97502 -14.23392 -14.18945 -14.15740 -10.15849
 Alpha  occ. eigenvalues --  -10.09630 -10.09367 -10.07489 -10.07396 -10.07238
 Alpha  occ. eigenvalues --  -10.07138 -10.06964 -10.06870 -10.06275 -10.04800
 Alpha  occ. eigenvalues --  -10.04766  -0.92954  -0.83075  -0.80153  -0.79245
 Alpha  occ. eigenvalues --   -0.74792  -0.66703  -0.65435  -0.63058  -0.59541
 Alpha  occ. eigenvalues --   -0.53846  -0.51705  -0.50401  -0.50010  -0.46886
 Alpha  occ. eigenvalues --   -0.44170  -0.41689  -0.38960  -0.38446  -0.37088
 Alpha  occ. eigenvalues --   -0.36801  -0.35876  -0.35051  -0.33053  -0.32683
 Alpha  occ. eigenvalues --   -0.32203  -0.30994  -0.30099  -0.28233  -0.28087
 Alpha  occ. eigenvalues --   -0.27678  -0.26894  -0.26528  -0.25185  -0.24240
 Alpha  occ. eigenvalues --   -0.23238  -0.20258  -0.18672  -0.17802  -0.14651
 Alpha  occ. eigenvalues --   -0.14225  -0.13956  -0.13118  -0.12613   0.04765
 Alpha virt. eigenvalues --    0.06719   0.07817   0.08352   0.08674   0.09429
 Alpha virt. eigenvalues --    0.10131   0.10536   0.10651   0.11191   0.11764
 Alpha virt. eigenvalues --    0.12001   0.12335   0.13084   0.13214   0.13799

  Beta  occ. eigenvalues --  -18.97458 -14.23441 -14.18917 -14.15288 -10.15789
  Beta  occ. eigenvalues --  -10.09626 -10.09333 -10.07392 -10.07221 -10.07122
  Beta  occ. eigenvalues --  -10.07055 -10.06961 -10.06794 -10.06279 -10.04793
  Beta  occ. eigenvalues --  -10.04758  -0.92863  -0.82834  -0.79607  -0.79203
  Beta  occ. eigenvalues --   -0.74761  -0.66207  -0.65351  -0.62814  -0.59446
  Beta  occ. eigenvalues --   -0.53728  -0.51354  -0.50293  -0.49901  -0.46823
  Beta  occ. eigenvalues --   -0.43984  -0.41633  -0.38877  -0.38411  -0.36968
  Beta  occ. eigenvalues --   -0.36625  -0.35826  -0.34876  -0.32930  -0.32548
  Beta  occ. eigenvalues --   -0.32127  -0.30947  -0.30052  -0.28141  -0.28018
  Beta  occ. eigenvalues --   -0.27484  -0.26509  -0.25929  -0.25092  -0.24056
  Beta  occ. eigenvalues --   -0.23094  -0.20233  -0.18645  -0.16603  -0.14463
  Beta  occ. eigenvalues --   -0.14180  -0.13274  -0.12387  -0.12102
  Beta virt. eigenvalues --    0.07229   0.07770   0.08555   0.08874   0.09432
  Beta virt. eigenvalues --    0.10055   0.10221   0.10606   0.10692   0.11193
  Beta virt. eigenvalues --    0.11809   0.12283   0.12393   0.13254   0.13308

 Mulliken charges and spin densities:
               1          2
     1  C   -0.149750  -0.016050
     2  N    0.303734  -0.020416
     3  C   -0.736742  -0.270950
     4  C    0.446041   0.387516
     5  C   -0.487946  -0.114033
     6  N   -0.122914   0.197141
     7  C   -0.663336  -0.107611
     8  C    0.244977   0.370446
     9  C   -0.282797   0.024329
    10  O   -0.326685   0.013450
    11  C    0.099765   0.024042
    12  C    0.508363  -1.494422
    13  C   -0.582497   1.028727
    14  C    0.078885  -0.531792
    15  C   -0.367407  -0.169080
    16  N   -0.312137   0.083276
    17  H    0.129524   0.007283
    18  H    0.126844  -0.003181
    19  H    0.153666   0.010515
    20  H    0.126834   0.024744
    21  H    0.126713  -0.004718
    22  H    0.028892   0.108215
    23  H    0.147982   0.018310
    24  H    0.229314  -0.000888
    25  H    0.189830   0.024232
    26  H    0.209270   0.015484
    27  H   -0.135820   0.369365
    28  H   -0.351643   0.504562
    29  H    0.076274   0.052192
    30  H    0.128982   0.047479
    31  H    0.199186  -0.073015
    32  H   -0.022365   0.247880
    33  H   -0.013039   0.246970
 Sum of Mulliken charges =  -1.00000   1.00000

 Dipole moment (field-independent basis, Debye):
    X=              0.4185    Y=              4.4280    Z=             -1.6572  Tot=              4.7464
 Quadrupole moment (field-independent basis, Debye-Ang):
   XX=           -155.0056   YY=           -135.8114   ZZ=           -118.0943
   XY=              8.5233   XZ=              4.4634   YZ=              0.4038

 Summary of Natural Population Analysis:

                                       Natural Population
                Natural  -----------------------------------------------
    Atom  No    Charge         Core      Valence    Rydberg      Total
 -----------------------------------------------------------------------
      C    1   -0.17036      0.99964     2.16488    0.00584     3.17036
      N    2   -0.25962      0.99961     2.75008    0.00993     3.75962
      C    3    0.15069      0.99945     1.83904    0.01082     2.84931
      C    4   -0.12702      0.99951     2.11866    0.00885     3.12702
      C    5    0.02070      0.99960     1.96360    0.01610     2.97930
      N    6   -0.18685      0.99971     2.67536    0.01177     3.68685
      C    7    0.03417      0.99960     1.94952    0.01672     2.96583
      C    8   -0.13976      0.99950     2.13193    0.00833     3.13976
      C    9    0.36334      0.99964     1.61490    0.02212     2.63666
      O   10   -0.33557      0.99988     3.33060    0.00510     4.33557
      C   11   -0.23551      0.99956     2.22631    0.00964     3.23551
      C   12   -0.01461      0.99957     2.00122    0.01383     3.01461
      C   13   -0.12570      0.99956     2.11206    0.01407     3.12570
      C   14   -0.19977      0.99961     2.19189    0.00826     3.19977
      C   15   -0.20348      0.99961     2.19613    0.00774     3.20348
      N   16   -0.41913      0.99977     2.90971    0.00965     3.91913
      H   17    0.09015      0.00000     0.40888    0.00097     0.40985
      H   18    0.09233      0.00000     0.40680    0.00088     0.40767
      H   19    0.10979      0.00000     0.38884    0.00137     0.39021
      H   20    0.09754      0.00000     0.40159    0.00087     0.40246
      H   21    0.08144      0.00000     0.41751    0.00105     0.41856
      H   22    0.08341      0.00000     0.41518    0.00141     0.41659
      H   23    0.10384      0.00000     0.39418    0.00198     0.39616
      H   24    0.11254      0.00000     0.38624    0.00122     0.38746
      H   25    0.11508      0.00000     0.38381    0.00110     0.38492
      H   26    0.09786      0.00000     0.40019    0.00195     0.40214
      H   27    0.10684      0.00000     0.39114    0.00202     0.39316
      H   28    0.10209      0.00000     0.39681    0.00110     0.39791
      H   29    0.09852      0.00000     0.40056    0.00092     0.40148
      H   30    0.11094      0.00000     0.38800    0.00106     0.38906
      H   31    0.09962      0.00000     0.39948    0.00090     0.40038
      H   32    0.17435      0.00000     0.32394    0.00171     0.32565
      H   33    0.17214      0.00000     0.32601    0.00185     0.32786
 =======================================================================
   * Total *   -0.00000     15.99384    42.80505    0.20112    59.00000

 Normal termination of Gaussian 16 at Thu Dec 10 22:26:16 2020.
