 Gaussian 16, Revision A.03,

 -----------------------------------------------------------
 # opt freq B3LYP/6-31G(d) empiricaldispersion=gd3bj scf=xqc
 -----------------------------------------------------------

 ------------------------------
 CID_54510522_JID_1580_neutraal
 ------------------------------
 Symbolic Z-matrix:
 Charge =  0 Multiplicity = 1

 SCF Done:  E(RB3LYP) =  -540.147316835     A.U. after   14 cycles
 SCF Done:  E(RB3LYP) =  -540.150812627     A.U. after   13 cycles
 SCF Done:  E(RB3LYP) =  -540.147354732     A.U. after   14 cycles
 SCF Done:  E(RB3LYP) =  -540.152563633     A.U. after   13 cycles
 SCF Done:  E(RB3LYP) =  -540.152926055     A.U. after   12 cycles
 SCF Done:  E(RB3LYP) =  -540.153499310     A.U. after   11 cycles
 SCF Done:  E(RB3LYP) =  -540.150254749     A.U. after   15 cycles
 SCF Done:  E(RB3LYP) =  -540.155135378     A.U. after   12 cycles
 SCF Done:  E(RB3LYP) =  -540.156619382     A.U. after   14 cycles
 SCF Done:  E(RB3LYP) =  -540.157528378     A.U. after   14 cycles
 SCF Done:  E(RB3LYP) =  -540.163869020     A.U. after   10 cycles
 SCF Done:  E(RB3LYP) =  -540.163870450     A.U. after    9 cycles
 SCF Done:  E(RB3LYP) =  -540.163871258     A.U. after    9 cycles
 SCF Done:  E(RB3LYP) =  -540.163871777     A.U. after    8 cycles
 SCF Done:  E(RB3LYP) =  -540.163872222     A.U. after    8 cycles
 SCF Done:  E(RB3LYP) =  -540.163872268     A.U. after    7 cycles
 Optimization completed.
    -- Stationary point found.

 1\1\GINC-NODE104\FOpt\RB3LYP\6-31G(d)\C8H16O3\VSC10255\08-Dec-2020\0\\
 # opt freq B3LYP/6-31G(d) empiricaldispersion=gd3bj scf=xqc\\CID_54510
 522_JID_1580_neutraal\\0,1\C,-0.5940801879,1.5631212648,-1.2829721906\
 C,0.52636008,1.6412847457,-0.2433320983\C,1.717796298,0.7612214618,-0.
 5945800969\O,2.2601043398,1.2090783067,-1.8254001348\C,3.3231991422,0.
 4083094338,-2.3036767378\C,3.7006808764,0.9321955263,-3.6899646522\C,4
 .2134347142,2.3756828345,-3.6297164679\C,4.7788835352,0.0338269292,-4.
 3173493615\O,4.2595944602,-1.2873744146,-4.4378895795\C,2.4581720562,0

 Normal termination of Gaussian 16 at Tue Dec  8 21:01:44 2020.

 --------------------------------------------------------------------
 #N Geom=AllCheck Guess=TCheck SCRF=Check GenChk RB3LYP/6-31G(d) Freq
 --------------------------------------------------------------------

 Structure from the checkpoint file:  "JID_1580.chk"
 ------------------------------
 CID_54510522_JID_1580_neutraal
 ------------------------------
 Charge =  0 Multiplicity = 1

 SCF Done:  E(RB3LYP) =  -540.163872268     A.U. after    1 cycles

  Exact polarizability: 103.824  -0.104  90.849  -2.270  -0.233  86.214
 Approx polarizability: 123.803   3.700 133.709  -3.154  -3.642 122.718

                      1                      2                      3
                      A                      A                      A
 Frequencies --     29.5127                38.0067                54.6849
 Red. masses --      4.1902                 3.5422                 3.4751
 Frc consts  --      0.0022                 0.0030                 0.0061
 IR Inten    --      1.7235                 1.6765                 3.2419

                      4                      5                      6
                      A                      A                      A
 Frequencies --     91.7294               115.2729               142.9028
 Red. masses --      3.6471                 3.1705                 1.9877
 Frc consts  --      0.0181                 0.0248                 0.0239
 IR Inten    --      1.7324                 1.7139                 5.0668

                      7                      8                      9
                      A                      A                      A
 Frequencies --    169.1380               196.1239               211.1300
 Red. masses --      2.8697                 1.8113                 1.1014
 Frc consts  --      0.0484                 0.0410                 0.0289
 IR Inten    --      1.7591                 4.6640                 1.6637

                     10                     11                     12
                      A                      A                      A
 Frequencies --    244.0511               254.0467               271.8767
 Red. masses --      2.1497                 1.1387                 2.7930
 Frc consts  --      0.0754                 0.0433                 0.1216
 IR Inten    --      4.5185               105.9582                 4.6074

                     13                     14                     15
                      A                      A                      A
 Frequencies --    295.6304               314.9525               348.7027
 Red. masses --      1.8223                 2.8342                 2.3058
 Frc consts  --      0.0938                 0.1656                 0.1652
 IR Inten    --     10.6283                 3.9383                 0.5125

                     16                     17                     18
                      A                      A                      A
 Frequencies --    363.4743               437.1332               490.3758
 Red. masses --      2.5962                 3.2151                 2.8427
 Frc consts  --      0.2021                 0.3620                 0.4028
 IR Inten    --      1.8776                 4.1121                 6.9572

                     19                     20                     21
                      A                      A                      A
 Frequencies --    567.2350               630.5881               782.5448
 Red. masses --      3.0852                 3.4848                 1.6906
 Frc consts  --      0.5849                 0.8164                 0.6100
 IR Inten    --     12.9241                 4.1153                 8.1757

                     22                     23                     24
                      A                      A                      A
 Frequencies --    785.8357               892.9405               917.6754
 Red. masses --      2.0691                 2.5480                 1.9469
 Frc consts  --      0.7528                 1.1970                 0.9660
 IR Inten    --      5.3172                 1.3177                10.1859

                     25                     26                     27
                      A                      A                      A
 Frequencies --    928.5505               942.7496               962.4903
 Red. masses --      1.8151                 1.4288                 1.5338
 Frc consts  --      0.9220                 0.7482                 0.8372
 IR Inten    --      6.8511                 4.5723                 9.5925

                     28                     29                     30
                      A                      A                      A
 Frequencies --    980.5574              1012.1218              1055.8378
 Red. masses --      1.8638                 1.6089                 1.7962
 Frc consts  --      1.0558                 0.9710                 1.1798
 IR Inten    --     10.4548                19.0967                15.0607

                     31                     32                     33
                      A                      A                      A
 Frequencies --   1077.7971              1090.1944              1142.4569
 Red. masses --      2.4640                 4.1467                 2.2360
 Frc consts  --      1.6864                 2.9038                 1.7195
 IR Inten    --      9.8331                50.8614                38.2008

                     34                     35                     36
                      A                      A                      A
 Frequencies --   1171.2980              1183.5124              1187.6897
 Red. masses --      4.1635                 1.7137                 1.8058
 Frc consts  --      3.3655                 1.4143                 1.5008
 IR Inten    --    164.0715                50.2427                14.9351

                     37                     38                     39
                      A                      A                      A
 Frequencies --   1220.1963              1223.1851              1268.9872
 Red. masses --      2.2501                 1.7452                 1.1601
 Frc consts  --      1.9738                 1.5384                 1.1007
 IR Inten    --     20.0409                 5.1191                23.7121

                     40                     41                     42
                      A                      A                      A
 Frequencies --   1287.0395              1313.5692              1323.6506
 Red. masses --      1.1721                 1.5698                 1.1975
 Frc consts  --      1.1439                 1.5958                 1.2362
 IR Inten    --      9.7885                18.0740                 2.7739

                     43                     44                     45
                      A                      A                      A
 Frequencies --   1337.5654              1394.2453              1405.2439
 Red. masses --      1.5896                 1.3269                 1.3875
 Frc consts  --      1.6756                 1.5198                 1.6143
 IR Inten    --     12.1936                27.2941                20.7420

                     46                     47                     48
                      A                      A                      A
 Frequencies --   1424.4562              1437.7875              1442.6729
 Red. masses --      1.2304                 1.3222                 1.2444
 Frc consts  --      1.4710                 1.6104                 1.5259
 IR Inten    --      7.2504                 2.8236                18.3037

                     49                     50                     51
                      A                      A                      A
 Frequencies --   1457.1979              1472.4511              1509.7540
 Red. masses --      1.4009                 1.3901                 1.0794
 Frc consts  --      1.7527                 1.7758                 1.4496
 IR Inten    --      0.8033                 9.4469                 1.8993

                     52                     53                     54
                      A                      A                      A
 Frequencies --   1518.3670              1525.8036              1537.3427
 Red. masses --      1.0566                 1.0454                 1.0542
 Frc consts  --      1.4352                 1.4339                 1.4680
 IR Inten    --      5.7914                 6.8638                 5.2685

                     55                     56                     57
                      A                      A                      A
 Frequencies --   1540.5878              1541.6480              1547.9647
 Red. masses --      1.0576                 1.0839                 1.0801
 Frc consts  --      1.4790                 1.5178                 1.5250
 IR Inten    --     12.3266                 5.3636                 2.9994

                     58                     59                     60
                      A                      A                      A
 Frequencies --   1562.7363              1831.2294              2948.5849
 Red. masses --      1.0862                10.2346                 1.0857
 Frc consts  --      1.5629                20.2213                 5.5614
 IR Inten    --      2.1575               144.0532                92.9205

                     61                     62                     63
                      A                      A                      A
 Frequencies --   2971.8701              2985.1418              2993.1960
 Red. masses --      1.0564                 1.0637                 1.0609
 Frc consts  --      5.4974                 5.5846                 5.6000
 IR Inten    --     28.5597                42.8679                75.5069

                     64                     65                     66
                      A                      A                      A
 Frequencies --   3003.3150              3038.1489              3041.6781
 Red. masses --      1.1044                 1.0973                 1.1023
 Frc consts  --      5.8693                 5.9676                 6.0085
 IR Inten    --     60.7525                36.2265                45.6906

                     67                     68                     69
                      A                      A                      A
 Frequencies --   3048.2549              3050.2523              3062.4236
 Red. masses --      1.0623                 1.0397                 1.0407
 Frc consts  --      5.8157                 5.6995                 5.7505
 IR Inten    --     41.6573                24.6447                29.7803

                     70                     71                     72
                      A                      A                      A
 Frequencies --   3082.9741              3114.3643              3136.2400
 Red. masses --      1.1011                 1.1008                 1.0961
 Frc consts  --      6.1664                 6.2904                 6.3520
 IR Inten    --     24.2646                45.8494                15.9415

                     73                     74                     75
                      A                      A                      A
 Frequencies --   3139.8759              3162.6904              3763.5947
 Red. masses --      1.1015                 1.1029                 1.0666
 Frc consts  --      6.3984                 6.4995                 8.9012
 IR Inten    --     30.9911                11.0336                22.9340

 - Thermochemistry -
 -------------------
 Temperature   298.150 Kelvin.  Pressure   1.00000 Atm.
 Atom     1 has atomic number  6 and mass  12.00000

 Molecular mass:   160.10994 amu.
 Principal axes and moments of inertia in atomic units:
                           1         2         3
     Eigenvalues --  1089.352733134.945833417.52427
           X            0.99977  -0.01428  -0.01610
           Y            0.01431   0.99990   0.00187
           Z            0.01607  -0.00210   0.99987
 This molecule is an asymmetric top.
 Rotational symmetry number  1.
 Warning -- assumption of classical behavior for rotation
           may cause significant error
 Rotational temperatures (Kelvin)      0.07951     0.02763     0.02534
 Rotational constants (GHZ):           1.65671     0.57568     0.52808
 Zero-point vibrational energy     622339.9 (Joules/Mol)
                                  148.74281 (Kcal/Mol)
 Warning -- explicit consideration of  19 degrees of freedom as
           vibrations may cause significant error
 Vibrational temperatures:     42.46    54.68    78.68   131.98   165.85
          (Kelvin)            205.61   243.35   282.18   303.77   351.14
                              365.52   391.17   425.35   453.15   501.71
                              522.96   628.94   705.54   816.12   907.28
                             1125.91  1130.64  1284.74  1320.33  1335.98
                             1356.41  1384.81  1410.80  1456.22  1519.12
                             1550.71  1568.55  1643.74  1685.24  1702.81
                             1708.82  1755.59  1759.89  1825.79  1851.76
                             1889.93  1904.44  1924.46  2006.01  2021.83
                             2049.47  2068.66  2075.68  2096.58  2118.53
                             2172.20  2184.59  2195.29  2211.89  2216.56
                             2218.09  2227.18  2248.43  2634.73  4242.36
                             4275.86  4294.95  4306.54  4321.10  4371.22
                             4376.30  4385.76  4388.63  4406.14  4435.71
                             4480.88  4512.35  4517.58  4550.41  5414.97

 Zero-point correction=                           0.237037 (Hartree/Particle)
 Thermal correction to Energy=                    0.250873
 Thermal correction to Enthalpy=                  0.251817
 Thermal correction to Gibbs Free Energy=         0.195452
 Sum of electronic and zero-point Energies=           -539.926836
 Sum of electronic and thermal Energies=              -539.912999
 Sum of electronic and thermal Enthalpies=            -539.912055
 Sum of electronic and thermal Free Energies=         -539.968421

                     E (Thermal)             CV                S
                      KCal/Mol        Cal/Mol-Kelvin    Cal/Mol-Kelvin
 Total                  157.425             48.256            118.631
 Electronic               0.000              0.000              0.000
 Translational            0.889              2.981             41.121
 Rotational               0.889              2.981             30.835
 Vibrational            155.648             42.294             46.675
 Vibration     1          0.593              1.984              5.862
 Vibration     2          0.594              1.982              5.360
 Vibration     3          0.596              1.976              4.640
 Vibration     4          0.602              1.955              3.623
 Vibration     5          0.608              1.937              3.178
 Vibration     6          0.616              1.910              2.765
 Vibration     7          0.625              1.880              2.445
 Vibration     8          0.636              1.845              2.169
 Vibration     9          0.643              1.824              2.034
 Vibration    10          0.659              1.773              1.773
 Vibration    11          0.665              1.756              1.702
 Vibration    12          0.675              1.725              1.584
 Vibration    13          0.690              1.682              1.442
 Vibration    14          0.702              1.645              1.336
 Vibration    15          0.726              1.578              1.172
 Vibration    16          0.737              1.547              1.107
 Vibration    17          0.797              1.389              0.836
 Vibration    18          0.846              1.271              0.683
 Vibration    19          0.923              1.102              0.510

 Optimization completed.
    -- Stationary point found.

 1\1\GINC-NODE104\Freq\RB3LYP\6-31G(d)\C8H16O3\VSC10255\08-Dec-2020\0\\
 #N Geom=AllCheck Guess=TCheck SCRF=Check GenChk RB3LYP/6-31G(d) Freq\\
 CID_54510522_JID_1580_neutraal\\0,1\C,-0.5940801879,1.5631212648,-1.28
 29721906\C,0.52636008,1.6412847457,-0.2433320983\C,1.717796298,0.76122
 14618,-0.5945800969\O,2.2601043398,1.2090783067,-1.8254001348\C,3.3231
 991422,0.4083094338,-2.3036767378\C,3.7006808764,0.9321955263,-3.68996
 46522\C,4.2134347142,2.3756828345,-3.6297164679\C,4.7788835352,0.03382
 69292,-4.3173493615\O,4.2595944602,-1.2873744146,-4.4378895795\C,2.458

 Normal termination of Gaussian 16 at Tue Dec  8 21:08:35 2020.

 ----------------------------------------------------------------------
 # B3LYP/6-311++G(d,p) empiricaldispersion=gd3bj scf=xqc pop=npa geom=c
 heck
 ----------------------------------------------------------------------

 --------------------------------------
 CID_54510522_JID_1580_Energie_neutraal
 --------------------------------------
 Structure from the checkpoint file:  "JID_1580.chk"
 Charge =  0 Multiplicity = 1

 SCF Done:  E(RB3LYP) =  -540.336616068     A.U. after   13 cycles
 Normal termination of Gaussian 16 at Tue Dec  8 21:13:30 2020.

 ----------------------------------------------------------------------
 # B3LYP/6-311++G(d,p) empiricaldispersion=gd3bj scf=xqc pop=npa geom=c
 heck
 ----------------------------------------------------------------------

 ------------------------------------
 CID_54510522_JID_1580_Energie_kation
 ------------------------------------
 Structure from the checkpoint file:  "JID_1580.chk"
 Charge =  1 Multiplicity = 2

 SCF Done:  E(UB3LYP) =  -540.005964234     A.U. after   22 cycles
 Normal termination of Gaussian 16 at Tue Dec  8 21:21:00 2020.
 Gaussian 16:  ES64L-G16RevA.03 25-Dec-2016

 -----------------------------------
 CID_54510522_JID_1580_Energie_anion
 -----------------------------------
 Structure from the checkpoint file:  "JID_1580.chk"
 Charge = -1 Multiplicity = 2

                         Standard orientation:
 ---------------------------------------------------------------------
 Center     Atomic      Atomic             Coordinates (Angstroms)
 Number     Number       Type             X           Y           Z
 ---------------------------------------------------------------------
      1          6           0        3.466856   -0.959589   -0.694973
      2          6           0        3.452043    0.274331    0.210328
      3          6           0        2.212435    1.135338    0.011718
      4          8           0        1.070797    0.362761    0.342444
      5          6           0       -0.154426    1.029939    0.110383
      6          6           0       -1.277539    0.027332    0.378973
      7          6           0       -1.285017   -0.436894    1.840014
      8          6           0       -2.638102    0.655711    0.036618
      9          8           0       -2.643254    1.011086   -1.343036
     10          6           0       -1.079893   -1.170111   -0.559017
     11          8           0       -1.445999   -2.294292   -0.299275
     12          1           0        2.589515   -1.585023   -0.507140
     13          1           0        4.363563   -1.564882   -0.524673
     14          1           0        3.452924   -0.669943   -1.753068
     15          1           0        3.497557   -0.030969    1.263210
     16          1           0        4.335234    0.898522    0.021481
     17          1           0        2.254311    2.035581    0.647402
     18          1           0        2.143401    1.474810   -1.036317
     19          1           0       -0.256760    1.907363    0.771456
     20          1           0       -0.207967    1.386779   -0.928860
     21          1           0       -1.561094    0.389681    2.504960
     22          1           0       -1.993940   -1.257278    1.976115
     23          1           0       -0.291225   -0.789692    2.123864
     24          1           0       -3.425179   -0.077714    0.263706
     25          1           0       -2.799430    1.538104    0.677193
     26          1           0       -3.534990    1.309189   -1.575001
     27          1           0       -0.596414   -0.937316   -1.529650
 ---------------------------------------------------------------------

 SCF Done:  E(UB3LYP) =  -540.325721108     A.U. after   32 cycles

 The electronic state is 2-A.
 Alpha  occ. eigenvalues --  -19.02626 -19.01074 -19.00269 -10.13602 -10.11813
 Alpha  occ. eigenvalues --  -10.11127 -10.11092 -10.08147 -10.07460 -10.06529
 Alpha  occ. eigenvalues --  -10.05594  -0.94265  -0.93321  -0.91234  -0.71728
 Alpha  occ. eigenvalues --   -0.68353  -0.60122  -0.57802  -0.55367  -0.52362
 Alpha  occ. eigenvalues --   -0.49095  -0.42730  -0.41315  -0.40113  -0.38511
 Alpha  occ. eigenvalues --   -0.38257  -0.34896  -0.34337  -0.33536  -0.32300
 Alpha  occ. eigenvalues --   -0.31169  -0.29833  -0.27904  -0.27566  -0.27080
 Alpha  occ. eigenvalues --   -0.26062  -0.25746  -0.24825  -0.24107  -0.22473
 Alpha  occ. eigenvalues --   -0.21525  -0.17347  -0.16224  -0.13835   0.04594
 Alpha virt. eigenvalues --    0.06064   0.07819   0.07920   0.08527   0.09093
 Alpha virt. eigenvalues --    0.09899   0.10224   0.11390   0.11989   0.12175
 Alpha virt. eigenvalues --    0.12558   0.13129   0.13578   0.14227   0.15565

  Beta  occ. eigenvalues --  -19.02620 -19.01005 -19.00154 -10.13496 -10.11796
  Beta  occ. eigenvalues --  -10.11113 -10.11046 -10.08158 -10.07442 -10.06520
  Beta  occ. eigenvalues --  -10.05584  -0.94234  -0.93120  -0.91092  -0.71668
  Beta  occ. eigenvalues --   -0.68313  -0.60086  -0.57731  -0.55282  -0.52142
  Beta  occ. eigenvalues --   -0.49040  -0.42624  -0.41213  -0.40006  -0.38473
  Beta  occ. eigenvalues --   -0.38201  -0.34843  -0.34248  -0.33442  -0.32242
  Beta  occ. eigenvalues --   -0.31133  -0.29779  -0.27721  -0.27429  -0.27008
  Beta  occ. eigenvalues --   -0.26007  -0.25506  -0.24782  -0.24027  -0.22395
  Beta  occ. eigenvalues --   -0.21475  -0.17282  -0.16190  -0.13747
  Beta virt. eigenvalues --    0.06666   0.07884   0.08328   0.08543   0.08903
  Beta virt. eigenvalues --    0.09919   0.10300   0.10555   0.11713   0.12049
  Beta virt. eigenvalues --    0.12477   0.12851   0.13282   0.13785   0.14406

 Mulliken charges and spin densities:
               1          2
     1  C   -0.089369  -0.356218
     2  C    0.057418  -0.418779
     3  C    0.255779  -0.322218
     4  O   -0.046562   0.026098
     5  C   -0.364639  -0.304782
     6  C   -1.019709   1.383663
     7  C   -0.396748  -0.052440
     8  C    1.916924  -2.225833
     9  O   -0.361684   0.114811
    10  C   -0.017012  -0.093164
    11  O   -0.240047   0.028505
    12  H    0.149094   0.026586
    13  H   -0.016384   0.145644
    14  H    0.050280   0.066791
    15  H    0.103267   0.039819
    16  H   -0.358629   0.497017
    17  H   -0.315361   0.453040
    18  H   -0.049021   0.172559
    19  H    0.155378  -0.001230
    20  H    0.130535   0.056906
    21  H    0.092617   0.032476
    22  H    0.136853   0.023083
    23  H    0.153475   0.004715
    24  H   -0.053877   0.238576
    25  H   -0.646426   0.807180
    26  H   -0.378103   0.658929
    27  H    0.151951  -0.001734
 Sum of Mulliken charges =  -1.00000   1.00000

 Dipole moment (field-independent basis, Debye):
    X=              4.5255    Y=             -2.9368    Z=              2.2976  Tot=              5.8638
 Quadrupole moment (field-independent basis, Debye-Ang):
   XX=           -144.8868   YY=           -110.2054   ZZ=            -93.2643
   XY=              4.2749   XZ=             -8.5394   YZ=              0.8254

 Summary of Natural Population Analysis:

                                       Natural Population
                Natural  -----------------------------------------------
    Atom  No    Charge         Core      Valence    Rydberg      Total
 -----------------------------------------------------------------------
      C    1   -0.28885      0.99966     2.28311    0.00608     3.28885
      C    2   -0.19949      0.99964     2.19074    0.00911     3.19949
      C    3   -0.00423      0.99958     1.99260    0.01204     3.00423
      O    4   -0.30718      0.99987     3.29836    0.00894     4.30718
      C    5   -0.00544      0.99953     1.99297    0.01294     3.00544
      C    6   -0.10970      0.99955     2.09590    0.01425     3.10970
      C    7   -0.28538      0.99963     2.27853    0.00722     3.28538
      C    8    0.00133      0.99953     1.98535    0.01379     2.99867
      O    9   -0.37494      0.99989     3.36778    0.00727     4.37494
      C   10    0.25465      0.99968     1.72268    0.02299     2.74535
      O   11   -0.27489      0.99988     3.26866    0.00635     4.27489
      H   12    0.10521      0.00000     0.39359    0.00120     0.39479
      H   13    0.09520      0.00000     0.40409    0.00071     0.40480
      H   14    0.09501      0.00000     0.40417    0.00082     0.40499
      H   15    0.09580      0.00000     0.40309    0.00111     0.40420
      H   16    0.09768      0.00000     0.40078    0.00154     0.40232
      H   17    0.08169      0.00000     0.41666    0.00165     0.41831
      H   18    0.07688      0.00000     0.42176    0.00136     0.42312
      H   19    0.08299      0.00000     0.41565    0.00136     0.41701
      H   20    0.09272      0.00000     0.40531    0.00197     0.40728
      H   21    0.09714      0.00000     0.40210    0.00076     0.40286
      H   22    0.10678      0.00000     0.39228    0.00095     0.39322
      H   23    0.10795      0.00000     0.39116    0.00090     0.39205
      H   24    0.08331      0.00000     0.41502    0.00167     0.41669
      H   25    0.08252      0.00000     0.41409    0.00339     0.41748
      H   26    0.23990      0.00000     0.23844    0.02166     0.26010
      H   27    0.05334      0.00000     0.44421    0.00245     0.44666
 =======================================================================
   * Total *   -0.00000     10.99645    32.83908    0.16447    44.00000

 Normal termination of Gaussian 16 at Tue Dec  8 21:33:19 2020.
