 Gaussian 16, Revision A.03,

 -----------------------------------------------------------
 # opt freq B3LYP/6-31G(d) empiricaldispersion=gd3bj scf=xqc
 -----------------------------------------------------------

 ------------------------------
 CID_61584458_JID_5452_neutraal
 ------------------------------
 Symbolic Z-matrix:
 Charge =  0 Multiplicity = 1

 SCF Done:  E(RB3LYP) =  -729.508549927     A.U. after   14 cycles
 SCF Done:  E(RB3LYP) =  -729.512354158     A.U. after   12 cycles
 SCF Done:  E(RB3LYP) =  -729.506962560     A.U. after   13 cycles
 SCF Done:  E(RB3LYP) =  -729.511873676     A.U. after   12 cycles
 SCF Done:  E(RB3LYP) =  -729.514430585     A.U. after    9 cycles
 SCF Done:  E(RB3LYP) =  -729.514848859     A.U. after   11 cycles
 SCF Done:  E(RB3LYP) =  -729.515140526     A.U. after   12 cycles
 SCF Done:  E(RB3LYP) =  -729.515529600     A.U. after   12 cycles
 SCF Done:  E(RB3LYP) =  -729.515853500     A.U. after   11 cycles
 SCF Done:  E(RB3LYP) =  -729.516129050     A.U. after   11 cycles
 SCF Done:  E(RB3LYP) =  -729.520008392     A.U. after    8 cycles
 SCF Done:  E(RB3LYP) =  -729.520011251     A.U. after    8 cycles
 SCF Done:  E(RB3LYP) =  -729.520012801     A.U. after    8 cycles
 SCF Done:  E(RB3LYP) =  -729.520013424     A.U. after    8 cycles
 SCF Done:  E(RB3LYP) =  -729.520013578     A.U. after    7 cycles
 SCF Done:  E(RB3LYP) =  -729.520013630     A.U. after    7 cycles
 Optimization completed.
    -- Stationary point found.
 Normal termination of Gaussian 16 at Thu Dec 10 17:36:12 2020.

 --------------------------------------------------------------------
 #N Geom=AllCheck Guess=TCheck SCRF=Check GenChk RB3LYP/6-31G(d) Freq
 --------------------------------------------------------------------

 Structure from the checkpoint file:  "JID_5452.chk"
 ------------------------------
 CID_61584458_JID_5452_neutraal
 ------------------------------
 Charge =  0 Multiplicity = 1

 SCF Done:  E(RB3LYP) =  -729.520013630     A.U. after    1 cycles

  Exact polarizability: 133.869   1.056 135.641   5.364   4.664 113.650
 Approx polarizability: 178.006   7.138 191.250   9.361   7.153 168.667

                      1                      2                      3
                      A                      A                      A
 Frequencies --     33.4903                48.2280                60.0186
 Red. masses --      4.2445                 5.1106                 3.8851
 Frc consts  --      0.0028                 0.0070                 0.0082
 IR Inten    --      3.4129                 1.4120                 2.6264

                      4                      5                      6
                      A                      A                      A
 Frequencies --     76.7441                87.5759                89.4614
 Red. masses --      4.4824                 4.6806                 4.6828
 Frc consts  --      0.0156                 0.0212                 0.0221
 IR Inten    --      0.7054                 0.5607                 0.8080

                      7                      8                      9
                      A                      A                      A
 Frequencies --    118.4648               123.9805               158.2064
 Red. masses --      2.3891                 2.6794                 3.8192
 Frc consts  --      0.0198                 0.0243                 0.0563
 IR Inten    --      1.7968                 5.2024                 2.3822

                     10                     11                     12
                      A                      A                      A
 Frequencies --    166.6849               228.5338               243.0437
 Red. masses --      3.0404                 3.0922                 2.3445
 Frc consts  --      0.0498                 0.0952                 0.0816
 IR Inten    --      3.2684                 1.9369                12.1906

                     13                     14                     15
                      A                      A                      A
 Frequencies --    259.2527               268.8370               286.0120
 Red. masses --      1.8294                 1.8311                 1.2507
 Frc consts  --      0.0724                 0.0780                 0.0603
 IR Inten    --     12.8690                 1.7180                 8.1858

                     16                     17                     18
                      A                      A                      A
 Frequencies --    296.2410               302.7924               324.6000
 Red. masses --      2.1036                 1.7588                 1.4855
 Frc consts  --      0.1088                 0.0950                 0.0922
 IR Inten    --      6.2283                 2.3307                59.9266

                     19                     20                     21
                      A                      A                      A
 Frequencies --    354.0773               362.0490               388.1489
 Red. masses --      1.6987                 1.9555                 1.5213
 Frc consts  --      0.1255                 0.1510                 0.1350
 IR Inten    --     94.8296                12.6550                81.4166

                     22                     23                     24
                      A                      A                      A
 Frequencies --    398.2386               477.5714               481.4947
 Red. masses --      2.4521                 2.7585                 2.2536
 Frc consts  --      0.2291                 0.3707                 0.3078
 IR Inten    --      7.7213                 2.9996                 6.9583

                     25                     26                     27
                      A                      A                      A
 Frequencies --    510.0125               538.4070               560.6679
 Red. masses --      3.6735                 2.6416                 2.4899
 Frc consts  --      0.5630                 0.4512                 0.4612
 IR Inten    --     16.4662                 4.9973                 3.8184

                     28                     29                     30
                      A                      A                      A
 Frequencies --    614.1577               623.7739               688.5708
 Red. masses --      3.3382                 1.4889                 2.6082
 Frc consts  --      0.7419                 0.3413                 0.7286
 IR Inten    --     13.5980                20.9979                37.1322

                     31                     32                     33
                      A                      A                      A
 Frequencies --    778.2533               794.7644               828.1921
 Red. masses --      2.7638                 1.2943                 2.6058
 Frc consts  --      0.9863                 0.4817                 1.0531
 IR Inten    --      4.0954                 1.6223                33.9159

                     34                     35                     36
                      A                      A                      A
 Frequencies --    883.9917               898.0364               902.9601
 Red. masses --      2.3208                 2.2815                 1.9137
 Frc consts  --      1.0685                 1.0841                 0.9193
 IR Inten    --      3.5603                 3.3670                 7.9647

                     37                     38                     39
                      A                      A                      A
 Frequencies --    922.2852               944.7993               961.5893
 Red. masses --      2.4128                 1.2965                 1.3524
 Frc consts  --      1.2092                 0.6819                 0.7368
 IR Inten    --     18.3776                 0.5033                 0.1561

                     40                     41                     42
                      A                      A                      A
 Frequencies --    969.5588              1036.3007              1057.8164
 Red. masses --      1.8441                 1.7185                 2.6608
 Frc consts  --      1.0214                 1.0874                 1.7542
 IR Inten    --      3.3477                26.4318                57.9174

                     43                     44                     45
                      A                      A                      A
 Frequencies --   1067.6220              1080.0746              1090.3111
 Red. masses --      2.1703                 3.0501                 2.8803
 Frc consts  --      1.4575                 2.0964                 2.0174
 IR Inten    --     66.4262                39.9389                49.6456

                     46                     47                     48
                      A                      A                      A
 Frequencies --   1112.2546              1117.7231              1138.0137
 Red. masses --      2.6386                 2.4507                 1.7092
 Frc consts  --      1.9233                 1.8039                 1.3042
 IR Inten    --     20.1083                40.2642                26.7351

                     49                     50                     51
                      A                      A                      A
 Frequencies --   1159.1923              1159.2668              1187.2915
 Red. masses --      2.7033                 2.3322                 1.6112
 Frc consts  --      2.1402                 1.8466                 1.3382
 IR Inten    --     17.2029                 9.1124                 8.0992

                     52                     53                     54
                      A                      A                      A
 Frequencies --   1223.9078              1232.3523              1239.5151
 Red. masses --      1.9115                 1.3066                 2.1085
 Frc consts  --      1.6870                 1.1691                 1.9087
 IR Inten    --     28.8893                25.5633                32.4677

                     55                     56                     57
                      A                      A                      A
 Frequencies --   1272.3364              1297.3613              1309.9929
 Red. masses --      1.3093                 1.2560                 1.3438
 Frc consts  --      1.2488                 1.2456                 1.3587
 IR Inten    --     17.4316                 2.0695                 6.2782

                     58                     59                     60
                      A                      A                      A
 Frequencies --   1329.0595              1364.7840              1367.7645
 Red. masses --      1.1663                 1.4309                 1.2624
 Frc consts  --      1.2138                 1.5703                 1.3914
 IR Inten    --      3.9805                58.5347                 4.9573

                     61                     62                     63
                      A                      A                      A
 Frequencies --   1371.9221              1395.6597              1411.0826
 Red. masses --      1.2638                 1.3778                 1.2712
 Frc consts  --      1.4014                 1.5812                 1.4913
 IR Inten    --     10.1063                31.0903                25.4536

                     64                     65                     66
                      A                      A                      A
 Frequencies --   1417.7331              1423.8618              1426.3363
 Red. masses --      1.1688                 1.4780                 1.2739
 Frc consts  --      1.3841                 1.7654                 1.5270
 IR Inten    --     30.5739                23.4381                21.8660

                     67                     68                     69
                      A                      A                      A
 Frequencies --   1433.4628              1437.5258              1445.1125
 Red. masses --      1.2609                 1.2881                 1.3864
 Frc consts  --      1.5265                 1.5683                 1.7059
 IR Inten    --     13.1243                16.5075                27.4871

                     70                     71                     72
                      A                      A                      A
 Frequencies --   1451.3903              1458.8942              1493.4025
 Red. masses --      1.2462                 1.4247                 1.4860
 Frc consts  --      1.5467                 1.7865                 1.9526
 IR Inten    --     21.9267                 5.4390                32.9096

                     73                     74                     75
                      A                      A                      A
 Frequencies --   1512.2261              1519.1776              1520.1663
 Red. masses --      1.3645                 1.0791                 1.0518
 Frc consts  --      1.8385                 1.4673                 1.4321
 IR Inten    --     47.2342                 3.4335                 0.8532

                     76                     77                     78
                      A                      A                      A
 Frequencies --   1527.6667              1533.2161              1540.4835
 Red. masses --      1.0847                 1.0792                 1.0643
 Frc consts  --      1.4915                 1.4947                 1.4880
 IR Inten    --      1.1083                 1.8342                11.6793

                     79                     80                     81
                      A                      A                      A
 Frequencies --   1541.2576              1543.5596              1545.2737
 Red. masses --      1.0671                 1.0831                 1.0722
 Frc consts  --      1.4935                 1.5205                 1.5085
 IR Inten    --      0.4044                 6.9507                 4.5749

                     82                     83                     84
                      A                      A                      A
 Frequencies --   1559.0195              1773.8677              2947.5581
 Red. masses --      1.0638                 7.4345                 1.0728
 Frc consts  --      1.5235                13.7829                 5.4917
 IR Inten    --      3.6723               316.3892                64.4069

                     85                     86                     87
                      A                      A                      A
 Frequencies --   2984.0520              3022.3451              3028.5375
 Red. masses --      1.0739                 1.0643                 1.0717
 Frc consts  --      5.6341                 5.7281                 5.7912
 IR Inten    --     64.8933                34.5104                37.4898

                     88                     89                     90
                      A                      A                      A
 Frequencies --   3050.1306              3052.9862              3061.2532
 Red. masses --      1.0862                 1.0369                 1.0377
 Frc consts  --      5.9536                 5.6944                 5.7294
 IR Inten    --     20.1049                32.6861                13.7842

                     91                     92                     93
                      A                      A                      A
 Frequencies --   3066.7900              3073.2750              3076.5899
 Red. masses --      1.0615                 1.0609                 1.0905
 Frc consts  --      5.8821                 5.9037                 6.0816
 IR Inten    --     11.6315                21.3064                42.1158

                     94                     95                     96
                      A                      A                      A
 Frequencies --   3086.5304              3100.0672              3112.2969
 Red. masses --      1.0896                 1.0854                 1.1057
 Frc consts  --      6.1158                 6.1456                 6.3101
 IR Inten    --     34.3852                27.2812                13.4446

                     97                     98                     99
                      A                      A                      A
 Frequencies --   3114.2771              3121.9421              3128.0474
 Red. masses --      1.1014                 1.1007                 1.0985
 Frc consts  --      6.2936                 6.3206                 6.3330
 IR Inten    --     24.8096                45.2048                44.7959

                    100                    101                    102
                      A                      A                      A
 Frequencies --   3130.5906              3142.8178              3154.2403
 Red. masses --      1.1013                 1.1021                 1.1009
 Frc consts  --      6.3592                 6.4134                 6.4531
 IR Inten    --     27.4003                 7.1855                18.9904

                    103                    104                    105
                      A                      A                      A
 Frequencies --   3596.1279              3736.8695              3737.4439
 Red. masses --      1.0760                 1.0661                 1.0654
 Frc consts  --      8.1984                 8.7712                 8.7679
 IR Inten    --     27.1703                 9.2125                17.0885

 - Thermochemistry -
 -------------------
 Temperature   298.150 Kelvin.  Pressure   1.00000 Atm.
 Atom     1 has atomic number  6 and mass  12.00000

 Molecular mass:   218.16304 amu.
 Principal axes and moments of inertia in atomic units:
                           1         2         3
     Eigenvalues --  2737.421864141.224995424.06907
           X            0.99955  -0.02822   0.01027
           Y            0.02791   0.99920   0.02871
           Z           -0.01108  -0.02841   0.99953
 This molecule is an asymmetric top.
 Rotational symmetry number  1.
 Warning -- assumption of classical behavior for rotation
           may cause significant error
 Rotational temperatures (Kelvin)      0.03164     0.02092     0.01597
 Rotational constants (GHZ):           0.65929     0.43580     0.33273
 Zero-point vibrational energy     871502.1 (Joules/Mol)
                                  208.29400 (Kcal/Mol)
 Warning -- explicit consideration of  28 degrees of freedom as
           vibrations may cause significant error
 Vibrational temperatures:     48.19    69.39    86.35   110.42   126.00
          (Kelvin)            128.71   170.44   178.38   227.62   239.82
                              328.81   349.69   373.01   386.80   411.51
                              426.22   435.65   467.03   509.44   520.91
                              558.46   572.98   687.12   692.76   733.79
                              774.65   806.68   883.64   897.47   990.70
                             1119.73  1143.49  1191.58  1271.87  1292.07
                             1299.16  1326.96  1359.36  1383.51  1394.98
                             1491.01  1521.96  1536.07  1553.99  1568.71
                             1600.29  1608.15  1637.35  1667.82  1667.93
                             1708.25  1760.93  1773.08  1783.39  1830.61
                             1866.61  1884.79  1912.22  1963.62  1967.91
                             1973.89  2008.04  2030.23  2039.80  2048.62
                             2052.18  2062.43  2068.28  2079.19  2088.23
                             2099.02  2148.67  2175.76  2185.76  2187.18
                             2197.97  2205.96  2216.41  2217.53  2220.84
                             2223.30  2243.08  2552.20  4240.88  4293.39
                             4348.48  4357.39  4388.46  4392.57  4404.46
                             4412.43  4421.76  4426.53  4440.83  4460.31
                             4477.90  4480.75  4491.78  4500.56  4504.22
                             4521.81  4538.25  5174.03  5376.52  5377.35

 Zero-point correction=                           0.331938 (Hartree/Particle)
 Thermal correction to Energy=                    0.349746
 Thermal correction to Enthalpy=                  0.350690
 Thermal correction to Gibbs Free Energy=         0.286123
 Sum of electronic and zero-point Energies=           -729.188076
 Sum of electronic and thermal Energies=              -729.170268
 Sum of electronic and thermal Enthalpies=            -729.169324
 Sum of electronic and thermal Free Energies=         -729.233891

                     E (Thermal)             CV                S
                      KCal/Mol        Cal/Mol-Kelvin    Cal/Mol-Kelvin
 Total                  219.469             65.621            135.892
 Electronic               0.000              0.000              0.000
 Translational            0.889              2.981             42.043
 Rotational               0.889              2.981             32.486
 Vibrational            217.691             59.660             61.363
 Vibration     1          0.594              1.983              5.611
 Vibration     2          0.595              1.978              4.889
 Vibration     3          0.597              1.973              4.457
 Vibration     4          0.599              1.965              3.972
 Vibration     5          0.601              1.958              3.714
 Vibration     6          0.602              1.957              3.672
 Vibration     7          0.609              1.934              3.125
 Vibration     8          0.610              1.929              3.037
 Vibration     9          0.621              1.893              2.571
 Vibration    10          0.624              1.883              2.473
 Vibration    11          0.651              1.797              1.890
 Vibration    12          0.659              1.774              1.780
 Vibration    13          0.668              1.747              1.667
 Vibration    14          0.673              1.730              1.604
 Vibration    15          0.684              1.700              1.497
 Vibration    16          0.690              1.681              1.438
 Vibration    17          0.694              1.668              1.401
 Vibration    18          0.709              1.626              1.287
 Vibration    19          0.730              1.567              1.148
 Vibration    20          0.736              1.550              1.113
 Vibration    21          0.756              1.495              1.007
 Vibration    22          0.765              1.474              0.969
 Vibration    23          0.834              1.300              0.717
 Vibration    24          0.838              1.291              0.706
 Vibration    25          0.865              1.228              0.634
 Vibration    26          0.893              1.165              0.569
 Vibration    27          0.916              1.116              0.523
 Vibration    28          0.974              1.002              0.426

 Optimization completed.
    -- Stationary point found.
 Normal termination of Gaussian 16 at Thu Dec 10 17:51:21 2020.

 ----------------------------------------------------------------------
 # B3LYP/6-311++G(d,p) empiricaldispersion=gd3bj scf=xqc pop=npa geom=c
 heck
 ----------------------------------------------------------------------

 --------------------------------------
 CID_61584458_JID_5452_Energie_neutraal
 --------------------------------------
 Structure from the checkpoint file:  "JID_5452.chk"
 Charge =  0 Multiplicity = 1

 SCF Done:  E(RB3LYP) =  -729.756561803     A.U. after   15 cycles
 Normal termination of Gaussian 16 at Thu Dec 10 17:59:00 2020.

 ----------------------------------------------------------------------
 # B3LYP/6-311++G(d,p) empiricaldispersion=gd3bj scf=xqc pop=npa geom=c
 heck
 ----------------------------------------------------------------------

 ------------------------------------
 CID_61584458_JID_5452_Energie_kation
 ------------------------------------
 Structure from the checkpoint file:  "JID_5452.chk"
 Charge =  1 Multiplicity = 2

 SCF Done:  E(UB3LYP) =  -729.455133802     A.U. after   23 cycles
 Normal termination of Gaussian 16 at Thu Dec 10 18:15:25 2020.
 Gaussian 16:  ES64L-G16RevA.03 25-Dec-2016

 ----------------------------------------------------------------------
 # B3LYP/6-311++G(d,p) empiricaldispersion=gd3bj scf=xqc pop=npa geom=c
 heck
 ----------------------------------------------------------------------

 -----------------------------------
 CID_61584458_JID_5452_Energie_anion
 -----------------------------------
 Structure from the checkpoint file:  "JID_5452.chk"
 Charge = -1 Multiplicity = 2

                         Standard orientation:
 ---------------------------------------------------------------------
 Center     Atomic      Atomic             Coordinates (Angstroms)
 Number     Number       Type             X           Y           Z
 ---------------------------------------------------------------------
      1          6           0       -0.035582   -2.941132   -0.777047
      2          6           0        0.370576   -1.462720   -0.881622
      3          6           0       -0.422925   -0.744696   -1.981977
      4          7           0        0.334583   -0.718644    0.408096
      5          6           0        1.526494   -0.953104    1.239260
      6          6           0        2.851459   -0.514834    0.608189
      7          6           0        2.840217    0.918703    0.079748
      8          8           0        4.106978    1.320629   -0.426071
      9          6           0       -0.856947   -0.962803    1.231120
     10          6           0       -2.182082   -0.573842    0.577767
     11          8           0       -2.951587   -1.423382    0.136636
     12          7           0       -2.496240    0.754971    0.513513
     13          6           0       -1.750863    1.919867    0.980098
     14          6           0       -0.760985    2.441003   -0.066600
     15          8           0       -1.394354    2.671203   -1.316709
     16          1           0       -1.105408   -3.041908   -0.573064
     17          1           0        0.522137   -3.458073    0.012520
     18          1           0        0.180029   -3.451708   -1.721846
     19          1           0        1.416969   -1.428083   -1.195199
     20          1           0       -1.500998   -0.807753   -1.815542
     21          1           0       -0.123834    0.305843   -2.053997
     22          1           0       -0.216236   -1.219045   -2.947819
     23          1           0        1.381622   -0.371707    2.158756
     24          1           0        1.610023   -2.009896    1.555515
     25          1           0        3.622065   -0.604616    1.388176
     26          1           0        3.164409   -1.187185   -0.198114
     27          1           0        2.147726    1.009267   -0.760253
     28          1           0        2.482516    1.605352    0.865800
     29          1           0        4.740353    1.280075    0.307225
     30          1           0       -0.968685   -2.017466    1.521891
     31          1           0       -0.732377   -0.387123    2.155281
     32          1           0       -3.393294    0.924339    0.075454
     33          1           0       -2.488083    2.694971    1.211538
     34          1           0       -1.222282    1.680090    1.908890
     35          1           0       -0.353668    3.403614    0.259466
     36          1           0        0.059533    1.721898   -0.158458
     37          1           0       -1.655394    1.798574   -1.651951
 ---------------------------------------------------------------------

 SCF Done:  E(UB3LYP) =  -729.748495231     A.U. after   31 cycles

 The electronic state is 2-A.
 Alpha  occ. eigenvalues --  -19.03762 -19.02063 -19.00392 -14.25439 -14.22138
 Alpha  occ. eigenvalues --  -10.18881 -10.12175 -10.12007 -10.11418 -10.11260
 Alpha  occ. eigenvalues --  -10.11188 -10.10006 -10.07391 -10.06954 -10.06895
 Alpha  occ. eigenvalues --   -0.95560  -0.93948  -0.92101  -0.84174  -0.83314
 Alpha  occ. eigenvalues --   -0.69521  -0.67941  -0.65848  -0.61786  -0.60267
 Alpha  occ. eigenvalues --   -0.56504  -0.55280  -0.51901  -0.49179  -0.46555
 Alpha  occ. eigenvalues --   -0.42504  -0.41886  -0.41433  -0.41086  -0.39733
 Alpha  occ. eigenvalues --   -0.37666  -0.36651  -0.35292  -0.34981  -0.34036
 Alpha  occ. eigenvalues --   -0.33535  -0.32225  -0.31864  -0.31256  -0.30965
 Alpha  occ. eigenvalues --   -0.30641  -0.29918  -0.29223  -0.27307  -0.26581
 Alpha  occ. eigenvalues --   -0.26449  -0.25199  -0.24909  -0.23578  -0.22758
 Alpha  occ. eigenvalues --   -0.20203  -0.17797  -0.17312  -0.17070  -0.13332
 Alpha  occ. eigenvalues --    0.04073
 Alpha virt. eigenvalues --    0.06098   0.06591   0.07314   0.08161   0.08469
 Alpha virt. eigenvalues --    0.08680   0.09547   0.09863   0.10203   0.10967
 Alpha virt. eigenvalues --    0.11736   0.11936   0.12269   0.12723   0.13375

  Beta  occ. eigenvalues --  -19.03756 -19.02030 -19.00391 -14.25430 -14.22138
  Beta  occ. eigenvalues --  -10.18881 -10.12166 -10.11970 -10.11412 -10.11244
  Beta  occ. eigenvalues --  -10.11168 -10.09975 -10.07387 -10.06925 -10.06883
  Beta  occ. eigenvalues --   -0.95555  -0.93935  -0.92032  -0.84158  -0.83296
  Beta  occ. eigenvalues --   -0.69495  -0.67897  -0.65803  -0.61745  -0.60249
  Beta  occ. eigenvalues --   -0.56439  -0.55245  -0.51846  -0.49129  -0.46515
  Beta  occ. eigenvalues --   -0.42473  -0.41846  -0.41392  -0.41021  -0.39684
  Beta  occ. eigenvalues --   -0.37638  -0.36622  -0.35257  -0.34961  -0.34003
  Beta  occ. eigenvalues --   -0.33508  -0.32187  -0.31846  -0.31226  -0.30941
  Beta  occ. eigenvalues --   -0.30606  -0.29888  -0.29207  -0.27285  -0.26505
  Beta  occ. eigenvalues --   -0.26430  -0.25179  -0.24876  -0.23555  -0.22717
  Beta  occ. eigenvalues --   -0.20184  -0.17761  -0.17300  -0.17045  -0.13316
  Beta virt. eigenvalues --    0.06269   0.06917   0.07315   0.07934   0.08616
  Beta virt. eigenvalues --    0.08721   0.09157   0.09764   0.10098   0.10572
  Beta virt. eigenvalues --    0.11398   0.11914   0.12191   0.12504   0.12975

 Mulliken charges and spin densities:
               1          2
     1  C   -0.197005  -0.394885
     2  C   -0.442523   0.289255
     3  C   -0.229896  -0.259519
     4  N    0.222768   0.136939
     5  C    0.606422  -0.937435
     6  C   -0.703026   0.443558
     7  C    0.947269  -1.328389
     8  O   -0.271234   0.043234
     9  C    0.585656  -0.837007
    10  C   -0.578963   0.266979
    11  O   -0.253728   0.006982
    12  N   -0.351097   0.067529
    13  C    0.747566  -0.876985
    14  C   -0.759401   0.301015
    15  O   -0.198052  -0.013371
    16  H    0.105676   0.083523
    17  H    0.092262   0.046640
    18  H    0.064459   0.068008
    19  H    0.296514  -0.122837
    20  H    0.185597   0.025033
    21  H    0.024968   0.068607
    22  H    0.078670   0.057720
    23  H   -0.409923   0.596672
    24  H   -0.055460   0.172480
    25  H   -0.783496   0.962195
    26  H   -0.010802   0.168495
    27  H   -0.142838   0.351869
    28  H   -0.104956   0.249185
    29  H   -0.142377   0.398564
    30  H    0.173944   0.008165
    31  H   -0.334096   0.469021
    32  H    0.190585   0.142315
    33  H   -0.482494   0.688934
    34  H   -0.271867   0.427314
    35  H   -0.276338   0.459800
    36  H    1.393255  -1.199174
    37  H    0.283961  -0.030430
 Sum of Mulliken charges =  -1.00000   1.00000

 Dipole moment (field-independent basis, Debye):
    X=             -4.3928    Y=             -3.4207    Z=             -5.2803  Tot=              7.6733
 Quadrupole moment (field-independent basis, Debye-Ang):
   XX=           -171.8721   YY=           -143.3078   ZZ=           -138.0486
   XY=             -6.1160   XZ=             -6.1046   YZ=             -1.1702

 Summary of Natural Population Analysis:

                                       Natural Population
                Natural  -----------------------------------------------
    Atom  No    Charge         Core      Valence    Rydberg      Total
 -----------------------------------------------------------------------
      C    1   -0.30235      0.99964     2.29805    0.00466     3.30235
      C    2   -0.00857      0.99960     1.99763    0.01134     3.00857
      C    3   -0.29312      0.99963     2.28790    0.00559     3.29312
      N    4   -0.29328      0.99971     2.77875    0.01482     3.79328
      C    5   -0.08148      0.99960     2.06937    0.01251     3.08148
      C    6   -0.20849      0.99962     2.19847    0.01039     3.20849
      C    7   -0.00846      0.99958     1.99627    0.01262     3.00846
      O    8   -0.36888      0.99990     3.36283    0.00615     4.36888
      C    9   -0.12934      0.99956     2.11829    0.01150     3.12934
      C   10    0.34068      0.99966     1.63558    0.02409     2.65932
      O   11   -0.32841      0.99988     3.32308    0.00545     4.32841
      N   12   -0.32158      0.99966     2.81015    0.01177     3.82158
      C   13   -0.10089      0.99961     2.08950    0.01179     3.10089
      C   14   -0.02366      0.99958     2.01165    0.01242     3.02366
      O   15   -0.37008      0.99990     3.36396    0.00622     4.37008
      H   16    0.11012      0.00000     0.38889    0.00099     0.38988
      H   17    0.10058      0.00000     0.39867    0.00075     0.39942
      H   18    0.09863      0.00000     0.40059    0.00078     0.40137
      H   19    0.09635      0.00000     0.40168    0.00197     0.40365
      H   20    0.10374      0.00000     0.39528    0.00097     0.39626
      H   21    0.09956      0.00000     0.39909    0.00136     0.40044
      H   22    0.09862      0.00000     0.40065    0.00074     0.40138
      H   23    0.10054      0.00000     0.39674    0.00272     0.39946
      H   24    0.08482      0.00000     0.41377    0.00141     0.41518
      H   25    0.10510      0.00000     0.39170    0.00321     0.39490
      H   26    0.09451      0.00000     0.40409    0.00140     0.40549
      H   27    0.08435      0.00000     0.41365    0.00201     0.41565
      H   28    0.07785      0.00000     0.42028    0.00187     0.42215
      H   29    0.22915      0.00000     0.26605    0.00480     0.27085
      H   30    0.09767      0.00000     0.40106    0.00127     0.40233
      H   31    0.10828      0.00000     0.38992    0.00180     0.39172
      H   32    0.19548      0.00000     0.30265    0.00186     0.30452
      H   33    0.10021      0.00000     0.39819    0.00161     0.39979
      H   34    0.10464      0.00000     0.39307    0.00228     0.39536
      H   35    0.08779      0.00000     0.41102    0.00118     0.41221
      H   36    0.09187      0.00000     0.40572    0.00241     0.40813
      H   37    0.22804      0.00000     0.26917    0.00279     0.27196
 =======================================================================
   * Total *    0.00000     14.99512    44.80338    0.20150    60.00000

 Normal termination of Gaussian 16 at Thu Dec 10 18:36:54 2020.
