 Gaussian 16, Revision A.03,

 -----------------------------------------------------------
 # opt freq B3LYP/6-31G(d) empiricaldispersion=gd3bj scf=xqc
 -----------------------------------------------------------

 ------------------------------
 CID_88113011_JID_6589_neutraal
 ------------------------------
 Symbolic Z-matrix:
 Charge =  0 Multiplicity = 1

 SCF Done:  E(RB3LYP) =  -804.897075994     A.U. after   15 cycles
 SCF Done:  E(RB3LYP) =  -804.756306431     A.U. after   15 cycles
 SCF Done:  E(RB3LYP) =  -804.900271351     A.U. after   13 cycles
 SCF Done:  E(RB3LYP) =  -804.902592915     A.U. after   13 cycles
 SCF Done:  E(RB3LYP) =  -804.903226970     A.U. after   12 cycles
 SCF Done:  E(RB3LYP) =  -804.903657971     A.U. after   12 cycles
 SCF Done:  E(RB3LYP) =  -804.904036380     A.U. after   12 cycles
 SCF Done:  E(RB3LYP) =  -804.904533697     A.U. after   12 cycles
 SCF Done:  E(RB3LYP) =  -804.904971307     A.U. after   12 cycles
 SCF Done:  E(RB3LYP) =  -804.905367348     A.U. after   12 cycles
 SCF Done:  E(RB3LYP) =  -804.906077083     A.U. after   10 cycles
 SCF Done:  E(RB3LYP) =  -804.906078698     A.U. after    9 cycles
 SCF Done:  E(RB3LYP) =  -804.906079028     A.U. after    8 cycles
 SCF Done:  E(RB3LYP) =  -804.906079249     A.U. after    8 cycles
 SCF Done:  E(RB3LYP) =  -804.906079361     A.U. after    8 cycles
 Optimization completed.
    -- Stationary point found.
 Normal termination of Gaussian 16 at Thu Dec 10 23:56:27 2020.

 --------------------------------------------------------------------
 #N Geom=AllCheck Guess=TCheck SCRF=Check GenChk RB3LYP/6-31G(d) Freq
 --------------------------------------------------------------------

 Structure from the checkpoint file:  "JID_6589.chk"
 ------------------------------
 CID_88113011_JID_6589_neutraal
 ------------------------------
 Charge =  0 Multiplicity = 1

 SCF Done:  E(RB3LYP) =  -804.906079361     A.U. after    1 cycles

  Exact polarizability: 138.951  -8.519 135.355  17.493  -5.086 111.869
 Approx polarizability: 181.964  -9.792 215.342  22.323 -17.865 169.654

                      1                      2                      3
                      A                      A                      A
 Frequencies --     18.0656                29.6457                39.3429
 Red. masses --      4.3207                 4.2492                 5.4808
 Frc consts  --      0.0008                 0.0022                 0.0050
 IR Inten    --      1.0230                 0.3614                 1.7755

                      4                      5                      6
                      A                      A                      A
 Frequencies --     55.4501                61.2801                64.6893
 Red. masses --      5.2925                 4.8473                 4.2824
 Frc consts  --      0.0096                 0.0107                 0.0106
 IR Inten    --      1.1470                 1.4949                 0.2639

                      7                      8                      9
                      A                      A                      A
 Frequencies --     77.1054                79.7298                93.1478
 Red. masses --      5.2197                 3.8670                 3.5132
 Frc consts  --      0.0183                 0.0145                 0.0180
 IR Inten    --      0.8401                 1.2489                 3.2042

                     10                     11                     12
                      A                      A                      A
 Frequencies --    102.0023               113.0379               119.8164
 Red. masses --      4.3225                 2.8388                 3.2691
 Frc consts  --      0.0265                 0.0214                 0.0277
 IR Inten    --      1.3281                 1.3411                 0.8592

                     13                     14                     15
                      A                      A                      A
 Frequencies --    168.1801               186.3028               214.0497
 Red. masses --      2.3009                 1.2520                 1.8213
 Frc consts  --      0.0383                 0.0256                 0.0492
 IR Inten    --      0.7775                 0.2586                 7.6311

                     16                     17                     18
                      A                      A                      A
 Frequencies --    218.0033               233.0162               276.6447
 Red. masses --      3.9710                 1.5911                 2.6493
 Frc consts  --      0.1112                 0.0509                 0.1195
 IR Inten    --      5.9358                 8.5312                 1.2909

                     19                     20                     21
                      A                      A                      A
 Frequencies --    295.9185               319.0487               344.0921
 Red. masses --      2.3386                 3.9471                 2.9897
 Frc consts  --      0.1207                 0.2367                 0.2086
 IR Inten    --      1.2730                10.4702                13.6870

                     22                     23                     24
                      A                      A                      A
 Frequencies --    424.7103               462.6890               480.5737
 Red. masses --      2.9944                 2.6159                 3.4338
 Frc consts  --      0.3182                 0.3299                 0.4672
 IR Inten    --      0.8219                 2.4633                 4.9910

                     25                     26                     27
                      A                      A                      A
 Frequencies --    537.3517               595.1327               606.8654
 Red. masses --      5.5649                 2.0899                 5.0169
 Frc consts  --      0.9467                 0.4361                 1.0886
 IR Inten    --     15.6219                 1.7493                 5.1898

                     28                     29                     30
                      A                      A                      A
 Frequencies --    644.6497               720.1400               734.5967
 Red. masses --      3.7628                 1.5818                 3.2539
 Frc consts  --      0.9213                 0.4833                 1.0346
 IR Inten    --      0.1168                 0.8043                 9.0034

                     31                     32                     33
                      A                      A                      A
 Frequencies --    736.3906               799.7030               810.7683
 Red. masses --      1.6066                 1.4603                 2.3830
 Frc consts  --      0.5133                 0.5502                 0.9229
 IR Inten    --      1.9843                10.9188                17.4018

                     34                     35                     36
                      A                      A                      A
 Frequencies --    839.4810               853.5131               879.1911
 Red. masses --      4.7744                 1.3646                 2.9440
 Frc consts  --      1.9824                 0.5857                 1.3408
 IR Inten    --     21.2542                63.5938                 7.4559

                     37                     38                     39
                      A                      A                      A
 Frequencies --    882.8753               893.9427               908.2287
 Red. masses --      2.2600                 4.0017                 1.4053
 Frc consts  --      1.0379                 1.8841                 0.6830
 IR Inten    --     18.8172                24.0657                39.7140

                     40                     41                     42
                      A                      A                      A
 Frequencies --    950.6260               990.2772              1000.0176
 Red. masses --      2.7264                 1.1166                 1.2562
 Frc consts  --      1.4516                 0.6452                 0.7401
 IR Inten    --     17.7020                41.6292                 0.6904

                     43                     44                     45
                      A                      A                      A
 Frequencies --   1003.3596              1020.3235              1037.1498
 Red. masses --      1.1778                 1.7482                 5.8825
 Frc consts  --      0.6986                 1.0723                 3.7282
 IR Inten    --      5.8922                42.9325                25.0800

                     46                     47                     48
                      A                      A                      A
 Frequencies --   1069.1023              1134.3454              1145.0572
 Red. masses --      4.5674                 1.9696                 2.0887
 Frc consts  --      3.0758                 1.4932                 1.6135
 IR Inten    --     58.7974                15.3251                12.3430

                     49                     50                     51
                      A                      A                      A
 Frequencies --   1187.3338              1195.4148              1213.0135
 Red. masses --      1.2778                 1.4163                 1.6739
 Frc consts  --      1.0613                 1.1925                 1.4512
 IR Inten    --      3.0976               111.3195                33.1206

                     52                     53                     54
                      A                      A                      A
 Frequencies --   1225.5346              1251.0685              1278.1219
 Red. masses --      1.4716                 3.9865                 3.3044
 Frc consts  --      1.3022                 3.6762                 3.1804
 IR Inten    --     10.3846               233.4378               195.8218

                     55                     56                     57
                      A                      A                      A
 Frequencies --   1338.0596              1347.5035              1351.7980
 Red. masses --      1.8786                 1.2014                 1.4021
 Frc consts  --      1.9817                 1.2853                 1.5096
 IR Inten    --    211.7153                 8.6990               159.3072

                     58                     59                     60
                      A                      A                      A
 Frequencies --   1378.7548              1412.7496              1423.5458
 Red. masses --      1.2127                 1.4135                 1.4728
 Frc consts  --      1.3582                 1.6622                 1.7585
 IR Inten    --     34.4540                14.0871                34.2525

                     61                     62                     63
                      A                      A                      A
 Frequencies --   1445.6319              1449.0899              1461.8839
 Red. masses --      1.3726                 1.1934                 1.1788
 Frc consts  --      1.6901                 1.4765                 1.4843
 IR Inten    --      7.7575                13.8993                 0.4642

                     64                     65                     66
                      A                      A                      A
 Frequencies --   1495.4828              1519.0285              1519.5273
 Red. masses --      1.2131                 1.0722                 1.0464
 Frc consts  --      1.5985                 1.4577                 1.4236
 IR Inten    --     13.4008                 2.9754                13.7900

                     67                     68                     69
                      A                      A                      A
 Frequencies --   1521.5757              1534.1225              1536.2513
 Red. masses --      1.0710                 1.0481                 1.0586
 Frc consts  --      1.4609                 1.4534                 1.4720
 IR Inten    --      6.2814                 6.2807                 3.2362

                     70                     71                     72
                      A                      A                      A
 Frequencies --   1706.6863              1709.6260              1732.5840
 Red. masses --      8.2660                 4.2480                 4.4721
 Frc consts  --     14.1857                 7.3154                 7.9094
 IR Inten    --     17.0224               136.1889                61.0195

                     73                     74                     75
                      A                      A                      A
 Frequencies --   1802.4149              1810.1662              3062.5557
 Red. masses --     10.8425                11.0871                 1.0364
 Frc consts  --     20.7533                21.4044                 5.7273
 IR Inten    --    422.9981                83.6555                14.7302

                     76                     77                     78
                      A                      A                      A
 Frequencies --   3082.3589              3108.4033              3133.6822
 Red. masses --      1.0289                 1.0657                 1.0971
 Frc consts  --      5.7596                 6.0667                 6.3478
 IR Inten    --     23.7304                 9.0925                24.9412

                     79                     80                     81
                      A                      A                      A
 Frequencies --   3149.6056              3165.5603              3178.7431
 Red. masses --      1.1030                 1.1073                 1.0744
 Frc consts  --      6.4466                 6.5376                 6.3966
 IR Inten    --      5.7974                 7.8145                 2.8037

                     82                     83                     84
                      A                      A                      A
 Frequencies --   3185.7275              3187.7315              3188.3993
 Red. masses --      1.1048                 1.1082                 1.0866
 Frc consts  --      6.6059                 6.6348                 6.5084
 IR Inten    --     11.4760                11.4635                 1.1881

                     85                     86                     87
                      A                      A                      A
 Frequencies --   3196.0561              3198.6293              3218.4315
 Red. masses --      1.0642                 1.0724                 1.0940
 Frc consts  --      6.4050                 6.4642                 6.6764
 IR Inten    --     11.6555                19.1212                 4.5334

                     88                     89                     90
                      A                      A                      A
 Frequencies --   3220.9735              3282.5009              3284.5301
 Red. masses --      1.0961                 1.1168                 1.1179
 Frc consts  --      6.7002                 7.0901                 7.1057
 IR Inten    --     10.0326                 8.3004                 8.6104

 - Thermochemistry -
 -------------------
 Temperature   298.150 Kelvin.  Pressure   1.00000 Atm.
 Atom     1 has atomic number  6 and mass  12.00000

 Molecular mass:   228.09977 amu.
 Principal axes and moments of inertia in atomic units:
                           1         2         3
     Eigenvalues --  2869.350964860.402926302.31138
           X            0.99958  -0.02876   0.00354
           Y            0.02867   0.99934   0.02219
           Z           -0.00418  -0.02208   0.99975
 This molecule is an asymmetric top.
 Rotational symmetry number  1.
 Warning -- assumption of classical behavior for rotation
           may cause significant error
 Rotational temperatures (Kelvin)      0.03019     0.01782     0.01374
 Rotational constants (GHZ):           0.62897     0.37132     0.28636
 Zero-point vibrational energy     681635.1 (Joules/Mol)
                                  162.91470 (Kcal/Mol)
 Warning -- explicit consideration of  27 degrees of freedom as
           vibrations may cause significant error
 Vibrational temperatures:     25.99    42.65    56.61    79.78    88.17
          (Kelvin)             93.07   110.94   114.71   134.02   146.76
                              162.64   172.39   241.97   268.05   307.97
                              313.66   335.26   398.03   425.76   459.04
                              495.07   611.06   665.71   691.44   773.13
                              856.26   873.14   927.51  1036.12  1056.92
                             1059.50  1150.59  1166.51  1207.83  1228.01
                             1264.96  1270.26  1286.18  1306.74  1367.74
                             1424.79  1438.80  1443.61  1468.02  1492.23
                             1538.20  1632.07  1647.48  1708.31  1719.94
                             1745.26  1763.27  1800.01  1838.93  1925.17
                             1938.76  1944.94  1983.72  2032.63  2048.16
                             2079.94  2084.92  2103.32  2151.67  2185.54
                             2186.26  2189.21  2207.26  2210.32  2455.54
                             2459.77  2492.80  2593.27  2604.43  4406.33
                             4434.83  4472.30  4508.67  4531.58  4554.54
                             4573.50  4583.55  4586.43  4587.40  4598.41
                             4602.11  4630.61  4634.26  4722.79  4725.71

 Zero-point correction=                           0.259621 (Hartree/Particle)
 Thermal correction to Energy=                    0.279122
 Thermal correction to Enthalpy=                  0.280066
 Thermal correction to Gibbs Free Energy=         0.208256
 Sum of electronic and zero-point Energies=           -804.646458
 Sum of electronic and thermal Energies=              -804.626957
 Sum of electronic and thermal Enthalpies=            -804.626013
 Sum of electronic and thermal Free Energies=         -804.697824

                     E (Thermal)             CV                S
                      KCal/Mol        Cal/Mol-Kelvin    Cal/Mol-Kelvin
 Total                  175.152             66.074            151.138
 Electronic               0.000              0.000              0.000
 Translational            0.889              2.981             42.176
 Rotational               0.889              2.981             32.841
 Vibrational            173.374             60.112             76.121
 Vibration     1          0.593              1.986              6.836
 Vibration     2          0.593              1.984              5.853
 Vibration     3          0.594              1.981              5.292
 Vibration     4          0.596              1.975              4.613
 Vibration     5          0.597              1.973              4.416
 Vibration     6          0.597              1.971              4.309
 Vibration     7          0.599              1.964              3.963
 Vibration     8          0.600              1.963              3.898
 Vibration     9          0.602              1.954              3.593
 Vibration    10          0.604              1.948              3.416
 Vibration    11          0.607              1.939              3.216
 Vibration    12          0.609              1.933              3.103
 Vibration    13          0.625              1.882              2.456
 Vibration    14          0.632              1.859              2.264
 Vibration    15          0.644              1.820              2.009
 Vibration    16          0.646              1.814              1.976
 Vibration    17          0.654              1.790              1.856
 Vibration    18          0.678              1.717              1.554
 Vibration    19          0.690              1.681              1.440
 Vibration    20          0.705              1.637              1.315
 Vibration    21          0.723              1.587              1.193
 Vibration    22          0.787              1.416              0.876
 Vibration    23          0.820              1.333              0.758
 Vibration    24          0.837              1.293              0.709
 Vibration    25          0.892              1.167              0.571
 Vibration    26          0.953              1.042              0.458
 Vibration    27          0.966              1.017              0.438

 Optimization completed.
    -- Stationary point found.
 Normal termination of Gaussian 16 at Fri Dec 11 00:06:19 2020.

 ----------------------------------------------------------------------
 # B3LYP/6-311++G(d,p) empiricaldispersion=gd3bj scf=xqc pop=npa geom=c
 heck
 ----------------------------------------------------------------------

 --------------------------------------
 CID_88113011_JID_6589_Energie_neutraal
 --------------------------------------
 Structure from the checkpoint file:  "JID_6589.chk"
 Charge =  0 Multiplicity = 1

 SCF Done:  E(RB3LYP) =  -805.149388655     A.U. after   15 cycles
 Normal termination of Gaussian 16 at Fri Dec 11 00:10:10 2020.

 ----------------------------------------------------------------------
 # B3LYP/6-311++G(d,p) empiricaldispersion=gd3bj scf=xqc pop=npa geom=c
 heck
 ----------------------------------------------------------------------

 ------------------------------------
 CID_88113011_JID_6589_Energie_kation
 ------------------------------------
 Structure from the checkpoint file:  "JID_6589.chk"
 Charge =  1 Multiplicity = 2

 SCF Done:  E(UB3LYP) =  -804.833001176     A.U. after   26 cycles
 Normal termination of Gaussian 16 at Fri Dec 11 00:19:08 2020.
 Gaussian 16:  ES64L-G16RevA.03 25-Dec-2016

 ----------------------------------------------------------------------
 # B3LYP/6-311++G(d,p) empiricaldispersion=gd3bj scf=xqc pop=npa geom=c
 heck
 ----------------------------------------------------------------------

 -----------------------------------
 CID_88113011_JID_6589_Energie_anion
 -----------------------------------
 Structure from the checkpoint file:  "JID_6589.chk"
 Charge = -1 Multiplicity = 2

                         Standard orientation:
 ---------------------------------------------------------------------
 Center     Atomic      Atomic             Coordinates (Angstroms)
 Number     Number       Type             X           Y           Z
 ---------------------------------------------------------------------
      1          6           0       -0.830782    2.621357    0.589470
      2          6           0       -0.290729    1.728272   -0.513591
      3          8           0        0.838462    0.949340   -0.047668
      4          6           0        2.047477    1.538273   -0.111530
      5          8           0        2.239190    2.684415   -0.467845
      6          6           0        3.146960    0.639157    0.322730
      7          6           0        3.094756   -0.693848    0.416262
      8          6           0        1.901715   -1.554568    0.147261
      9          8           0        1.353181   -2.201775    1.015887
     10          8           0        1.567146   -1.578212   -1.149066
     11          6           0        0.395554   -2.356563   -1.463540
     12          6           0       -1.620164   -0.860589    2.034716
     13          6           0       -2.675289   -0.710607    1.241733
     14          8           0       -2.621685   -1.018166   -0.104152
     15          6           0       -3.415870   -0.304529   -0.960436
     16          6           0       -3.992399    0.876693   -0.731664
     17          1           0       -1.102883    2.021786    1.462870
     18          1           0       -1.727584    3.140739    0.232833
     19          1           0       -0.088479    3.370374    0.878073
     20          1           0       -1.023675    0.981733   -0.816447
     21          1           0        0.024828    2.311196   -1.381809
     22          1           0        4.065776    1.165901    0.560807
     23          1           0        3.962157   -1.238032    0.782809
     24          1           0        0.514365   -3.383866   -1.110902
     25          1           0       -0.487597   -1.913261   -0.998233
     26          1           0        0.316369   -2.327945   -2.550297
     27          1           0       -0.652188   -1.181242    1.665648
     28          1           0       -1.732885   -0.685089    3.098893
     29          1           0       -3.660110   -0.398109    1.582076
     30          1           0       -3.510272   -0.835087   -1.902575
     31          1           0       -4.607799    1.322421   -1.504072
     32          1           0       -3.867736    1.425379    0.194615
 ---------------------------------------------------------------------

 SCF Done:  E(UB3LYP) =  -805.156853282     A.U. after   33 cycles
 SCF Done:  E(UB3LYP) =  -805.156853282     a.u. after    1 cycles

 The electronic state is 2-A.
 Alpha  occ. eigenvalues --  -19.08417 -19.03924 -19.01935 -18.97499 -18.94785
 Alpha  occ. eigenvalues --  -10.16253 -10.14904 -10.13878 -10.13512 -10.10609
 Alpha  occ. eigenvalues --  -10.10231 -10.07820 -10.06765 -10.05139 -10.02739
 Alpha  occ. eigenvalues --  -10.02402  -0.99954  -0.97933  -0.95784  -0.88882
 Alpha  occ. eigenvalues --   -0.86707  -0.70050  -0.66665  -0.65506  -0.64138
 Alpha  occ. eigenvalues --   -0.60396  -0.55030  -0.54015  -0.49708  -0.46848
 Alpha  occ. eigenvalues --   -0.44430  -0.43511  -0.42245  -0.39859  -0.38975
 Alpha  occ. eigenvalues --   -0.37132  -0.36901  -0.35147  -0.34808  -0.33210
 Alpha  occ. eigenvalues --   -0.32725  -0.32194  -0.31257  -0.30923  -0.30606
 Alpha  occ. eigenvalues --   -0.29831  -0.28278  -0.27028  -0.26936  -0.26347
 Alpha  occ. eigenvalues --   -0.25693  -0.24328  -0.22765  -0.21094  -0.19088
 Alpha  occ. eigenvalues --   -0.18435  -0.16591  -0.16103  -0.14558  -0.13676
 Alpha  occ. eigenvalues --   -0.12695   0.04274
 Alpha virt. eigenvalues --    0.05877   0.07370   0.07936   0.08187   0.09390
 Alpha virt. eigenvalues --    0.09923   0.10098   0.10662   0.10749   0.11345
 Alpha virt. eigenvalues --    0.12025   0.12336   0.13191   0.13784   0.14260

  Beta  occ. eigenvalues --  -19.08417 -19.03876 -19.01884 -18.97385 -18.94502
  Beta  occ. eigenvalues --  -10.16188 -10.14892 -10.13874 -10.13333 -10.10592
  Beta  occ. eigenvalues --  -10.10234 -10.07802 -10.06765 -10.05128 -10.02360
  Beta  occ. eigenvalues --  -10.02221  -0.99950  -0.97787  -0.95554  -0.88688
  Beta  occ. eigenvalues --   -0.86289  -0.70034  -0.66258  -0.65473  -0.63857
  Beta  occ. eigenvalues --   -0.60181  -0.55013  -0.53707  -0.49161  -0.46830
  Beta  occ. eigenvalues --   -0.44196  -0.43480  -0.42097  -0.39818  -0.38801
  Beta  occ. eigenvalues --   -0.37104  -0.36650  -0.34994  -0.34658  -0.32938
  Beta  occ. eigenvalues --   -0.32403  -0.32162  -0.31096  -0.30851  -0.30404
  Beta  occ. eigenvalues --   -0.29801  -0.28072  -0.26987  -0.26758  -0.25985
  Beta  occ. eigenvalues --   -0.25151  -0.24181  -0.22592  -0.20938  -0.19063
  Beta  occ. eigenvalues --   -0.18054  -0.15849  -0.15409  -0.14533  -0.12958
  Beta  occ. eigenvalues --   -0.11404
  Beta virt. eigenvalues --    0.06499   0.07502   0.07973   0.08370   0.09238
  Beta virt. eigenvalues --    0.09865   0.10057   0.10353   0.10605   0.10943
  Beta virt. eigenvalues --    0.11219   0.11943   0.12309   0.13159   0.13893

 Mulliken charges and spin densities:
               1          2
     1  C   -0.338130  -0.108793
     2  C   -0.163856   0.068083
     3  O    0.065278   0.004405
     4  C   -0.158659   0.176128
     5  O   -0.340190   0.089274
     6  C   -0.153214   0.060826
     7  C   -0.016774   0.346491
     8  C   -0.682120  -0.033487
     9  O   -0.202347   0.038721
    10  O    0.059891  -0.000370
    11  C   -0.204160  -0.026554
    12  C   -0.133482  -0.209716
    13  C   -0.174489  -0.083957
    14  O    0.012702  -0.007707
    15  C   -0.100987   0.142920
    16  C    0.363049  -0.810500
    17  H    0.149869   0.016382
    18  H    0.039580   0.061144
    19  H    0.148636   0.024208
    20  H    0.146969  -0.100649
    21  H    0.180966   0.018551
    22  H    0.133118   0.005230
    23  H    0.124834   0.012108
    24  H    0.119924   0.026300
    25  H    0.310997  -0.047434
    26  H    0.089684   0.057224
    27  H    0.239432   0.025630
    28  H    0.135081  -0.002888
    29  H    0.033886   0.099505
    30  H   -0.390686   0.575562
    31  H   -0.358569   0.515116
    32  H    0.063768   0.068247
 Sum of Mulliken charges =  -1.00000   1.00000

 Dipole moment (field-independent basis, Debye):
    X=             -3.4305    Y=             -1.8363    Z=              1.3392  Tot=              4.1150
 Quadrupole moment (field-independent basis, Debye-Ang):
   XX=           -148.4536   YY=           -130.8912   ZZ=           -114.0995
   XY=             -6.2019   XZ=             -9.1878   YZ=              8.4806

 Summary of Natural Population Analysis:

                                       Natural Population
                Natural  -----------------------------------------------
    Atom  No    Charge         Core      Valence    Rydberg      Total
 -----------------------------------------------------------------------
      C    1   -0.29904      0.99966     2.29510    0.00428     3.29904
      C    2   -0.01939      0.99958     2.00735    0.01246     3.01939
      O    3   -0.28478      0.99986     3.27480    0.01013     4.28478
      C    4    0.41030      0.99966     1.56657    0.02347     2.58970
      O    5   -0.30005      0.99987     3.29491    0.00527     4.30005
      C    6   -0.11241      0.99950     2.10325    0.00966     3.11241
      C    7   -0.04849      0.99949     2.03994    0.00906     3.04849
      C    8    0.41149      0.99967     1.56428    0.02457     2.58851
      O    9   -0.31241      0.99987     3.30685    0.00570     4.31241
      O   10   -0.26978      0.99986     3.26138    0.00854     4.26978
      C   11   -0.11279      0.99960     2.10276    0.01043     3.11279
      C   12   -0.21265      0.99957     2.20549    0.00758     3.21265
      C   13    0.05840      0.99946     1.92777    0.01437     2.94160
      O   14   -0.27085      0.99985     3.25862    0.01238     4.27085
      C   15    0.08241      0.99947     1.90240    0.01572     2.91759
      C   16   -0.25370      0.99959     2.24621    0.00790     3.25370
      H   17    0.10035      0.00000     0.39857    0.00108     0.39965
      H   18    0.09449      0.00000     0.40448    0.00103     0.40551
      H   19    0.10581      0.00000     0.39307    0.00112     0.39419
      H   20    0.08941      0.00000     0.40849    0.00210     0.41059
      H   21    0.09184      0.00000     0.40686    0.00131     0.40816
      H   22    0.09376      0.00000     0.40452    0.00172     0.40624
      H   23    0.09275      0.00000     0.40570    0.00155     0.40725
      H   24    0.08742      0.00000     0.41168    0.00090     0.41258
      H   25    0.09720      0.00000     0.40117    0.00163     0.40280
      H   26    0.08579      0.00000     0.41340    0.00081     0.41421
      H   27    0.12144      0.00000     0.37681    0.00174     0.37856
      H   28    0.09525      0.00000     0.40400    0.00075     0.40475
      H   29    0.08284      0.00000     0.41586    0.00129     0.41716
      H   30    0.09150      0.00000     0.40717    0.00133     0.40850
      H   31    0.10453      0.00000     0.39424    0.00123     0.39547
      H   32    0.09938      0.00000     0.39957    0.00106     0.40062
 =======================================================================
   * Total *    0.00000     15.99455    44.80328    0.20217    61.00000

 Normal termination of Gaussian 16 at Fri Dec 11 00:30:32 2020.
