 Gaussian 16, Revision A.03,

 -----------------------------------------------------------
 # opt freq B3LYP/6-31G(d) empiricaldispersion=gd3bj scf=xqc
 -----------------------------------------------------------

 -------------------------------
 CID_112307295_JID_6908_neutraal
 -------------------------------
 Symbolic Z-matrix:
 Charge =  0 Multiplicity = 1

 SCF Done:  E(RB3LYP) =  -744.172157427     A.U. after   15 cycles
 SCF Done:  E(RB3LYP) =  -744.174808583     A.U. after   13 cycles
 SCF Done:  E(RB3LYP) =  -744.173364292     A.U. after   14 cycles
 SCF Done:  E(RB3LYP) =  -744.177358751     A.U. after   12 cycles
 SCF Done:  E(RB3LYP) =  -744.178563195     A.U. after   13 cycles
 SCF Done:  E(RB3LYP) =  -744.179281718     A.U. after   12 cycles
 SCF Done:  E(RB3LYP) =  -744.179447716     A.U. after   11 cycles
 SCF Done:  E(RB3LYP) =  -744.179603860     A.U. after   11 cycles
 SCF Done:  E(RB3LYP) =  -744.179682784     A.U. after   10 cycles
 SCF Done:  E(RB3LYP) =  -744.179710902     A.U. after   10 cycles
 SCF Done:  E(RB3LYP) =  -744.179733324     A.U. after   10 cycles
 SCF Done:  E(RB3LYP) =  -744.179735273     A.U. after    9 cycles
 SCF Done:  E(RB3LYP) =  -744.179735496     A.U. after    7 cycles
 SCF Done:  E(RB3LYP) =  -744.179735622     A.U. after    7 cycles
 SCF Done:  E(RB3LYP) =  -744.179735685     A.U. after    7 cycles
 Optimization completed.
    -- Stationary point found.
 Normal termination of Gaussian 16 at Thu Dec 10 23:53:44 2020.

 --------------------------------------------------------------------
 #N Geom=AllCheck Guess=TCheck SCRF=Check GenChk RB3LYP/6-31G(d) Freq
 --------------------------------------------------------------------

 Structure from the checkpoint file:  "JID_6908.chk"
 -------------------------------
 CID_112307295_JID_6908_neutraal
 -------------------------------
 Charge =  0 Multiplicity = 1

 SCF Done:  E(RB3LYP) =  -744.179735685     A.U. after    1 cycles

  Exact polarizability: 153.640 -13.746 154.644  15.080   7.809 103.532
 Approx polarizability: 207.173 -25.384 244.209  34.855  14.583 167.957

                      1                      2                      3
                      A                      A                      A
 Frequencies --     19.5466                36.0933                43.4780
 Red. masses --      4.0256                 4.3230                 4.7200
 Frc consts  --      0.0009                 0.0033                 0.0053
 IR Inten    --      0.4253                 0.4164                 2.1289

                      4                      5                      6
                      A                      A                      A
 Frequencies --     76.6618               101.4827               118.2401
 Red. masses --      5.9258                 3.3718                 4.0017
 Frc consts  --      0.0205                 0.0205                 0.0330
 IR Inten    --      0.6487                 0.4075                 4.0356

                      7                      8                      9
                      A                      A                      A
 Frequencies --    144.1481               173.6943               193.1540
 Red. masses --      4.0836                 2.5264                 4.5513
 Frc consts  --      0.0500                 0.0449                 0.1000
 IR Inten    --      2.5164                 2.5042                 2.8058

                     10                     11                     12
                      A                      A                      A
 Frequencies --    232.5042               245.2369               267.1166
 Red. masses --      1.3679                 2.5689                 3.8850
 Frc consts  --      0.0436                 0.0910                 0.1633
 IR Inten    --      2.8372                 0.4366                 7.4262

                     13                     14                     15
                      A                      A                      A
 Frequencies --    304.4022               330.3137               339.7475
 Red. masses --      1.8219                 1.3196                 3.8491
 Frc consts  --      0.0995                 0.0848                 0.2618
 IR Inten    --     26.8826                68.0386                19.2798

                     16                     17                     18
                      A                      A                      A
 Frequencies --    366.3041               416.9625               424.9682
 Red. masses --      4.5171                 2.3320                 3.3556
 Frc consts  --      0.3571                 0.2389                 0.3571
 IR Inten    --      3.7740                 4.6084                 1.3956

                     19                     20                     21
                      A                      A                      A
 Frequencies --    459.5441               473.5475               514.8781
 Red. masses --      3.7808                 4.4873                 2.8006
 Frc consts  --      0.4704                 0.5929                 0.4374
 IR Inten    --      9.8756                 1.1316                23.6836

                     22                     23                     24
                      A                      A                      A
 Frequencies --    532.7769               579.9247               607.5031
 Red. masses --      1.6468                 4.8225                 1.9711
 Frc consts  --      0.2754                 0.9556                 0.4286
 IR Inten    --     57.7550                25.2119                 3.2999

                     25                     26                     27
                      A                      A                      A
 Frequencies --    635.5516               709.1335               728.8809
 Red. masses --      6.9497                 4.1572                 2.4169
 Frc consts  --      1.6539                 1.2317                 0.7565
 IR Inten    --     16.2434                30.4454                17.3285

                     28                     29                     30
                      A                      A                      A
 Frequencies --    735.2603               773.8354               775.5476
 Red. masses --      1.6698                 1.7649                 3.9583
 Frc consts  --      0.5319                 0.6227                 1.4027
 IR Inten    --     31.4683                 4.6352                69.7533

                     31                     32                     33
                      A                      A                      A
 Frequencies --    818.7178               848.5896               861.8949
 Red. masses --      1.5716                 1.5911                 2.0677
 Frc consts  --      0.6207                 0.6751                 0.9050
 IR Inten    --     26.7411                 2.4098                 7.1085

                     34                     35                     36
                      A                      A                      A
 Frequencies --    897.3419               925.0489               930.1177
 Red. masses --      2.9995                 1.7098                 1.4633
 Frc consts  --      1.4231                 0.8620                 0.7458
 IR Inten    --     11.1348                10.6632                 3.5075

                     37                     38                     39
                      A                      A                      A
 Frequencies --    953.9754               982.3707               993.3642
 Red. masses --      1.4782                 3.2300                 1.3177
 Frc consts  --      0.7926                 1.8366                 0.7661
 IR Inten    --      2.3536                41.4205                 2.4348

                     40                     41                     42
                      A                      A                      A
 Frequencies --   1011.9325              1027.4914              1039.9958
 Red. masses --      2.5284                 1.6604                 4.0784
 Frc consts  --      1.5255                 1.0328                 2.5990
 IR Inten    --      6.4444                 2.6028                12.6941

                     43                     44                     45
                      A                      A                      A
 Frequencies --   1067.0287              1068.8750              1079.7318
 Red. masses --      1.7043                 2.5372                 2.3122
 Frc consts  --      1.1433                 1.7079                 1.5882
 IR Inten    --      3.5911                 6.0820                 1.6540

                     46                     47                     48
                      A                      A                      A
 Frequencies --   1142.7358              1153.8048              1163.4537
 Red. masses --      2.0544                 1.4450                 1.9288
 Frc consts  --      1.5806                 1.1334                 1.5383
 IR Inten    --     25.9946                 3.5773                17.1093

                     49                     50                     51
                      A                      A                      A
 Frequencies --   1174.9130              1232.3790              1248.2396
 Red. masses --      2.9670                 1.5655                 1.2437
 Frc consts  --      2.4131                 1.4008                 1.1417
 IR Inten    --     26.1055                 7.1259                43.3643

                     52                     53                     54
                      A                      A                      A
 Frequencies --   1268.5525              1279.9570              1305.0148
 Red. masses --      1.2437                 2.1892                 1.1955
 Frc consts  --      1.1792                 2.1131                 1.1995
 IR Inten    --     18.9724                44.1849                 4.8567

                     55                     56                     57
                      A                      A                      A
 Frequencies --   1312.8087              1335.8567              1353.3443
 Red. masses --      1.2287                 4.3804                 1.2553
 Frc consts  --      1.2477                 4.6056                 1.3546
 IR Inten    --     69.1088                30.1823                 8.6396

                     58                     59                     60
                      A                      A                      A
 Frequencies --   1366.1904              1387.5678              1408.6188
 Red. masses --      1.6004                 1.4349                 1.5580
 Frc consts  --      1.7600                 1.6277                 1.8214
 IR Inten    --     91.0582                84.9545                25.5088

                     61                     62                     63
                      A                      A                      A
 Frequencies --   1423.5279              1427.1729              1439.2539
 Red. masses --      1.8568                 1.4438                 1.3276
 Frc consts  --      2.2169                 1.7327                 1.6203
 IR Inten    --    221.5172                 3.7793                 2.1127

                     64                     65                     66
                      A                      A                      A
 Frequencies --   1445.5665              1459.6723              1502.7893
 Red. masses --      1.8509                 1.4658                 1.0961
 Frc consts  --      2.2788                 1.8401                 1.4585
 IR Inten    --     98.6372                21.4220                11.5757

                     67                     68                     69
                      A                      A                      A
 Frequencies --   1507.6180              1517.3741              1523.8979
 Red. masses --      1.8616                 1.3715                 1.1473
 Frc consts  --      2.4929                 1.8604                 1.5698
 IR Inten    --    117.8367                11.3866                 7.9507

                     70                     71                     72
                      A                      A                      A
 Frequencies --   1532.0045              1532.5823              1539.0979
 Red. masses --      1.2309                 1.7334                 1.0726
 Frc consts  --      1.7021                 2.3989                 1.4970
 IR Inten    --     13.5533                30.8093                 3.4273

                     73                     74                     75
                      A                      A                      A
 Frequencies --   1556.9982              1629.9562              1650.0833
 Red. masses --      1.0868                 5.2029                 5.8229
 Frc consts  --      1.5522                 8.1442                 9.3412
 IR Inten    --      6.0186                 5.5433                31.0128

                     76                     77                     78
                      A                      A                      A
 Frequencies --   1809.6510              2986.8560              3022.4459
 Red. masses --      6.6998                 1.0841                 1.0684
 Frc consts  --     12.9271                 5.6984                 5.7506
 IR Inten    --    605.3691                59.2855                38.8252

                     79                     80                     81
                      A                      A                      A
 Frequencies --   3042.3592              3052.2826              3065.6587
 Red. masses --      1.0689                 1.0376                 1.0617
 Frc consts  --      5.8292                 5.6953                 5.8789
 IR Inten    --     29.7452                19.3463                21.2493

                     82                     83                     84
                      A                      A                      A
 Frequencies --   3079.7627              3099.1505              3107.7483
 Red. masses --      1.0930                 1.0939                 1.1042
 Frc consts  --      6.1082                 6.1903                 6.2836
 IR Inten    --     24.6556                15.1983                32.2695

                     85                     86                     87
                      A                      A                      A
 Frequencies --   3118.2287              3127.2975              3155.8321
 Red. masses --      1.1011                 1.1024                 1.0898
 Frc consts  --      6.3081                 6.3522                 6.3945
 IR Inten    --     43.4248                30.8499                28.1423

                     88                     89                     90
                      A                      A                      A
 Frequencies --   3180.3958              3204.3881              3225.8702
 Red. masses --      1.0884                 1.0926                 1.0942
 Frc consts  --      6.4865                 6.6103                 6.7087
 IR Inten    --     13.4540                22.7024                 3.7743

                     91                     92                     93
                      A                      A                      A
 Frequencies --   3544.6855              3593.9389              3744.1244
 Red. masses --      1.0771                 1.0753                 1.0661
 Frc consts  --      7.9734                 8.1835                 8.8052
 IR Inten    --    214.1401                38.6346                14.4480

 - Thermochemistry -
 -------------------
 Temperature   298.150 Kelvin.  Pressure   1.00000 Atm.
 Atom     1 has atomic number  6 and mass  12.00000

 Molecular mass:   223.13208 amu.
 Principal axes and moments of inertia in atomic units:
                           1         2         3
     Eigenvalues --  2413.073165659.463907292.46717
           X            0.99969   0.02475  -0.00117
           Y           -0.02473   0.99956   0.01619
           Z            0.00157  -0.01615   0.99987
 This molecule is an asymmetric top.
 Rotational symmetry number  1.
 Warning -- assumption of classical behavior for rotation
           may cause significant error
 Rotational temperatures (Kelvin)      0.03589     0.01530     0.01188
 Rotational constants (GHZ):           0.74790     0.31889     0.24748
 Zero-point vibrational energy     740779.3 (Joules/Mol)
                                  177.05050 (Kcal/Mol)
 Warning -- explicit consideration of  24 degrees of freedom as
           vibrations may cause significant error
 Vibrational temperatures:     28.12    51.93    62.56   110.30   146.01
          (Kelvin)            170.12   207.40   249.91   277.91   334.52
                              352.84   384.32   437.97   475.25   488.82
                              527.03   599.92   611.43   661.18   681.33
                              740.79   766.55   834.38   874.06   914.42
                             1020.29  1048.70  1057.88  1113.38  1115.84
                             1177.95  1220.93  1240.07  1291.07  1330.94
                             1338.23  1372.56  1413.41  1429.23  1455.95
                             1478.33  1496.32  1535.22  1537.87  1553.49
                             1644.14  1660.07  1673.95  1690.44  1773.12
                             1795.94  1825.16  1841.57  1877.63  1888.84
                             1922.00  1947.16  1965.64  1996.40  2026.69
                             2048.14  2053.38  2070.77  2079.85  2100.14
                             2162.18  2169.13  2183.16  2192.55  2204.21
                             2205.04  2214.42  2240.17  2345.14  2374.10
                             2603.68  4297.42  4348.63  4377.28  4391.55
                             4410.80  4431.09  4458.99  4471.36  4486.44
                             4499.48  4540.54  4575.88  4610.40  4641.31
                             5100.01  5170.88  5386.96

 Zero-point correction=                           0.282148 (Hartree/Particle)
 Thermal correction to Energy=                    0.297988
 Thermal correction to Enthalpy=                  0.298933
 Thermal correction to Gibbs Free Energy=         0.237254
 Sum of electronic and zero-point Energies=           -743.897588
 Sum of electronic and thermal Energies=              -743.881747
 Sum of electronic and thermal Enthalpies=            -743.880803
 Sum of electronic and thermal Free Energies=         -743.942481

                     E (Thermal)             CV                S
                      KCal/Mol        Cal/Mol-Kelvin    Cal/Mol-Kelvin
 Total                  186.991             59.753            129.812
 Electronic               0.000              0.000              0.000
 Translational            0.889              2.981             42.110
 Rotational               0.889              2.981             32.965
 Vibrational            185.213             53.791             54.737
 Vibration     1          0.593              1.986              6.680
 Vibration     2          0.594              1.982              5.463
 Vibration     3          0.595              1.980              5.094
 Vibration     4          0.599              1.965              3.975
 Vibration     5          0.604              1.948              3.426
 Vibration     6          0.608              1.934              3.129
 Vibration     7          0.616              1.909              2.748
 Vibration     8          0.627              1.875              2.395
 Vibration     9          0.635              1.849              2.197
 Vibration    10          0.653              1.791              1.860
 Vibration    11          0.660              1.771              1.765
 Vibration    12          0.672              1.733              1.615
 Vibration    13          0.695              1.665              1.393
 Vibration    14          0.713              1.615              1.259
 Vibration    15          0.720              1.596              1.213
 Vibration    16          0.739              1.542              1.095
 Vibration    17          0.780              1.433              0.902
 Vibration    18          0.787              1.416              0.875
 Vibration    19          0.817              1.340              0.767
 Vibration    20          0.830              1.309              0.728
 Vibration    21          0.870              1.217              0.622
 Vibration    22          0.888              1.178              0.581
 Vibration    23          0.937              1.075              0.486
 Vibration    24          0.966              1.016              0.437

 Optimization completed.
    -- Stationary point found.
 Normal termination of Gaussian 16 at Fri Dec 11 00:04:17 2020.

 ----------------------------------------------------------------------
 # B3LYP/6-311++G(d,p) empiricaldispersion=gd3bj scf=xqc pop=npa geom=c
 heck
 ----------------------------------------------------------------------

 ---------------------------------------
 CID_112307295_JID_6908_Energie_neutraal
 ---------------------------------------
 Structure from the checkpoint file:  "JID_6908.chk"
 Charge =  0 Multiplicity = 1

 SCF Done:  E(RB3LYP) =  -744.403374823     A.U. after   15 cycles
 Normal termination of Gaussian 16 at Fri Dec 11 00:09:29 2020.

 ----------------------------------------------------------------------
 # B3LYP/6-311++G(d,p) empiricaldispersion=gd3bj scf=xqc pop=npa geom=c
 heck
 ----------------------------------------------------------------------

 -------------------------------------
 CID_112307295_JID_6908_Energie_kation
 -------------------------------------
 Structure from the checkpoint file:  "JID_6908.chk"
 Charge =  1 Multiplicity = 2

 SCF Done:  E(UB3LYP) =  -744.098555732     A.U. after   28 cycles
 Normal termination of Gaussian 16 at Fri Dec 11 00:23:08 2020.
 Gaussian 16:  ES64L-G16RevA.03 25-Dec-2016

 ----------------------------------------------------------------------
 # B3LYP/6-311++G(d,p) empiricaldispersion=gd3bj scf=xqc pop=npa geom=c
 heck
 ----------------------------------------------------------------------

 ------------------------------------
 CID_112307295_JID_6908_Energie_anion
 ------------------------------------
 Structure from the checkpoint file:  "JID_6908.chk"
 Charge = -1 Multiplicity = 2

                         Standard orientation:
 ---------------------------------------------------------------------
 Center     Atomic      Atomic             Coordinates (Angstroms)
 Number     Number       Type             X           Y           Z
 ---------------------------------------------------------------------
      1          6           0       -2.872484   -2.747669    0.037117
      2          6           0       -3.036381   -1.386060   -0.643140
      3          6           0       -3.325882   -0.239569    0.331497
      4          6           0       -2.223247    0.018273    1.365685
      5          6           0       -0.800956    0.117927    0.805283
      6          7           0       -0.689171    1.173862   -0.201809
      7          6           0        0.322454    2.097300   -0.272912
      8          8           0        0.170355    3.230471   -0.709922
      9          7           0        1.572795    1.682667    0.217759
     10          6           0        2.200554    0.436943    0.031616
     11          6           0        3.355685    0.147955    0.777482
     12          7           0        4.051189   -0.983419    0.670396
     13          6           0        3.608083   -1.907220   -0.192414
     14          6           0        2.474374   -1.721640   -0.982373
     15          6           0        1.762013   -0.529760   -0.881443
     16          8           0       -3.509797    0.998085   -0.377303
     17          1           0       -1.987839   -2.772877    0.682078
     18          1           0       -2.762621   -3.544193   -0.705648
     19          1           0       -3.744355   -2.987827    0.657365
     20          1           0       -2.143851   -1.138250   -1.230285
     21          1           0       -3.870543   -1.440493   -1.358419
     22          1           0       -4.251368   -0.475618    0.881805
     23          1           0       -2.477970    0.942556    1.896630
     24          1           0       -2.239607   -0.791749    2.103834
     25          1           0       -0.106059    0.327151    1.624482
     26          1           0       -0.498816   -0.849571    0.384504
     27          1           0       -1.576975    1.536888   -0.536827
     28          1           0        2.198644    2.475457    0.292478
     29          1           0        3.726106    0.883557    1.491553
     30          1           0        4.184317   -2.827928   -0.251530
     31          1           0        2.159902   -2.492019   -1.680233
     32          1           0        0.889782   -0.339636   -1.496918
     33          1           0       -4.112182    0.835455   -1.119885
 ---------------------------------------------------------------------

 SCF Done:  E(UB3LYP) =  -744.400365181     A.U. after   33 cycles
 SCF Done:  E(UB3LYP) =  -744.400365181     a.u. after    1 cycles

 The electronic state is 2-A.
 Alpha  occ. eigenvalues --  -19.03552 -18.98851 -14.24805 -14.22879 -14.19900
 Alpha  occ. eigenvalues --  -10.20127 -10.13093 -10.12440 -10.11172 -10.09866
 Alpha  occ. eigenvalues --  -10.09702 -10.08133 -10.07666 -10.07579 -10.07469
 Alpha  occ. eigenvalues --  -10.06764  -0.95485  -0.93645  -0.85345  -0.83175
 Alpha  occ. eigenvalues --   -0.81286  -0.70721  -0.69504  -0.66090  -0.65280
 Alpha  occ. eigenvalues --   -0.58992  -0.55224  -0.54087  -0.53412  -0.50073
 Alpha  occ. eigenvalues --   -0.48072  -0.44784  -0.43103  -0.41014  -0.40808
 Alpha  occ. eigenvalues --   -0.39976  -0.37670  -0.36256  -0.35096  -0.34014
 Alpha  occ. eigenvalues --   -0.33597  -0.32873  -0.32501  -0.31636  -0.30574
 Alpha  occ. eigenvalues --   -0.29784  -0.29480  -0.28480  -0.27761  -0.27670
 Alpha  occ. eigenvalues --   -0.25689  -0.25219  -0.22885  -0.22345  -0.18996
 Alpha  occ. eigenvalues --   -0.18391  -0.17970  -0.15704  -0.15520  -0.13193
 Alpha  occ. eigenvalues --    0.03840
 Alpha virt. eigenvalues --    0.05443   0.06947   0.07248   0.07563   0.07880
 Alpha virt. eigenvalues --    0.08633   0.09343   0.09776   0.10480   0.10812
 Alpha virt. eigenvalues --    0.11150   0.11951   0.12344   0.12570   0.13137

  Beta  occ. eigenvalues --  -19.03529 -18.98847 -14.24807 -14.22877 -14.19683
  Beta  occ. eigenvalues --  -10.20123 -10.13076 -10.12479 -10.11169 -10.09891
  Beta  occ. eigenvalues --  -10.09604 -10.08118 -10.07600 -10.07438 -10.07411
  Beta  occ. eigenvalues --  -10.06729  -0.95477  -0.93595  -0.85249  -0.82997
  Beta  occ. eigenvalues --   -0.81236  -0.70673  -0.69222  -0.66026  -0.65165
  Beta  occ. eigenvalues --   -0.58944  -0.55091  -0.54002  -0.53262  -0.49966
  Beta  occ. eigenvalues --   -0.48001  -0.44713  -0.43044  -0.40965  -0.40695
  Beta  occ. eigenvalues --   -0.39933  -0.37600  -0.36215  -0.35053  -0.33944
  Beta  occ. eigenvalues --   -0.33531  -0.32847  -0.32463  -0.31533  -0.30424
  Beta  occ. eigenvalues --   -0.29620  -0.29280  -0.28449  -0.27612  -0.27590
  Beta  occ. eigenvalues --   -0.25603  -0.25178  -0.22832  -0.22161  -0.18950
  Beta  occ. eigenvalues --   -0.18006  -0.17404  -0.15620  -0.15348  -0.12882
  Beta virt. eigenvalues --    0.06428   0.07319   0.07439   0.07594   0.07838
  Beta virt. eigenvalues --    0.08162   0.08785   0.09557   0.10197   0.10780
  Beta virt. eigenvalues --    0.10997   0.11330   0.12056   0.12588   0.12744

 Mulliken charges and spin densities:
               1          2
     1  C    1.021701  -1.642052
     2  C   -0.627617   0.480857
     3  C    0.819843  -0.948374
     4  C   -0.557859  -0.209337
     5  C   -0.020002  -0.111649
     6  N   -0.292899   0.058146
     7  C    0.156693   0.010591
     8  O   -0.337030  -0.005783
     9  N   -0.272338   0.031240
    10  C    0.271204  -0.389502
    11  C   -0.558925   0.256862
    12  N   -0.115843   0.081472
    13  C   -0.292006  -0.163086
    14  C   -0.377191   0.240765
    15  C    0.339676   0.087917
    16  O   -0.274614   0.014031
    17  H   -0.317662   0.464880
    18  H   -0.191173   0.328883
    19  H   -0.141801   0.289505
    20  H    0.100607   0.051932
    21  H   -0.892049   1.059634
    22  H   -0.380320   0.595093
    23  H    0.125929   0.087533
    24  H   -0.085373   0.252561
    25  H    0.176647   0.040668
    26  H    0.560353  -0.438072
    27  H    0.481605  -0.084819
    28  H    0.318097   0.001108
    29  H    0.104898   0.024510
    30  H    0.112945   0.025267
    31  H    0.017344   0.133283
    32  H    0.109293   0.132867
    33  H    0.017867   0.243071
 Sum of Mulliken charges =  -1.00000   1.00000

 Dipole moment (field-independent basis, Debye):
    X=              4.6892    Y=              1.5082    Z=              1.0839  Tot=              5.0437
 Quadrupole moment (field-independent basis, Debye-Ang):
   XX=           -185.0308   YY=           -145.0553   ZZ=           -122.1336
   XY=             -5.0130   XZ=             -7.9723   YZ=              5.5854

 Summary of Natural Population Analysis:

                                       Natural Population
                Natural  -----------------------------------------------
    Atom  No    Charge         Core      Valence    Rydberg      Total
 -----------------------------------------------------------------------
      C    1   -0.28694      0.99966     2.28156    0.00572     3.28694
      C    2   -0.20578      0.99962     2.19622    0.00995     3.20578
      C    3    0.06512      0.99955     1.92078    0.01455     2.93488
      C    4   -0.20154      0.99960     2.19250    0.00943     3.20154
      C    5   -0.09499      0.99961     2.08534    0.01005     3.09499
      N    6   -0.33868      0.99966     2.83084    0.00819     3.83868
      C    7    0.40908      0.99970     1.56832    0.02290     2.59092
      O    8   -0.33477      0.99987     3.32976    0.00513     4.33477
      N    9   -0.32918      0.99965     2.82012    0.00941     3.82918
      C   10    0.05212      0.99947     1.93735    0.01106     2.94788
      C   11    0.02831      0.99955     1.95879    0.01335     2.97169
      N   12   -0.20508      0.99971     2.69377    0.01160     3.70508
      C   13    0.00262      0.99960     1.98102    0.01676     2.99738
      C   14   -0.10935      0.99957     2.10071    0.00908     3.10935
      C   15   -0.07887      0.99952     2.07094    0.00840     3.07887
      O   16   -0.38265      0.99989     3.37595    0.00681     4.38265
      H   17    0.09669      0.00000     0.40210    0.00121     0.40331
      H   18    0.10247      0.00000     0.39652    0.00101     0.39753
      H   19    0.09914      0.00000     0.39945    0.00142     0.40086
      H   20    0.09754      0.00000     0.40046    0.00201     0.40246
      H   21    0.10007      0.00000     0.39687    0.00306     0.39993
      H   22    0.08238      0.00000     0.41559    0.00203     0.41762
      H   23    0.10440      0.00000     0.39441    0.00120     0.39560
      H   24    0.10721      0.00000     0.39196    0.00084     0.39279
      H   25    0.10277      0.00000     0.39607    0.00116     0.39723
      H   26    0.09621      0.00000     0.40218    0.00161     0.40379
      H   27    0.21283      0.00000     0.28451    0.00266     0.28717
      H   28    0.19629      0.00000     0.30163    0.00207     0.30371
      H   29    0.08319      0.00000     0.41508    0.00173     0.41681
      H   30    0.08616      0.00000     0.41263    0.00121     0.41384
      H   31    0.10118      0.00000     0.39799    0.00083     0.39882
      H   32    0.10679      0.00000     0.39140    0.00182     0.39321
      H   33    0.23528      0.00000     0.26133    0.00339     0.26472
 =======================================================================
   * Total *   -0.00000     15.99423    43.80413    0.20164    60.00000

 Normal termination of Gaussian 16 at Fri Dec 11 00:39:12 2020.
