 Gaussian 16, Revision A.03,

 -----------------------------------------------------------
 # opt freq B3LYP/6-31G(d) empiricaldispersion=gd3bj scf=xqc
 -----------------------------------------------------------

 -------------------------------
 CID_114794734_JID_3594_neutraal
 -------------------------------
 Symbolic Z-matrix:
 Charge =  0 Multiplicity = 1

 SCF Done:  E(RB3LYP) =  -555.593105926     A.U. after   14 cycles
 SCF Done:  E(RB3LYP) =  -555.599057173     A.U. after   12 cycles
 SCF Done:  E(RB3LYP) =  -555.600490985     A.U. after   12 cycles
 SCF Done:  E(RB3LYP) =  -555.601183600     A.U. after   12 cycles
 SCF Done:  E(RB3LYP) =  -555.601455941     A.U. after   11 cycles
 SCF Done:  E(RB3LYP) =  -555.601538828     A.U. after   10 cycles
 SCF Done:  E(RB3LYP) =  -555.601586898     A.U. after    9 cycles
 SCF Done:  E(RB3LYP) =  -555.601602002     A.U. after    9 cycles
 SCF Done:  E(RB3LYP) =  -555.601606687     A.U. after    8 cycles
 SCF Done:  E(RB3LYP) =  -555.601612833     A.U. after    9 cycles
 SCF Done:  E(RB3LYP) =  -555.601637021     A.U. after    8 cycles
 SCF Done:  E(RB3LYP) =  -555.601637227     A.U. after    7 cycles
 SCF Done:  E(RB3LYP) =  -555.601637373     A.U. after    7 cycles
 SCF Done:  E(RB3LYP) =  -555.601637418     A.U. after    6 cycles
 SCF Done:  E(RB3LYP) =  -555.601637429     A.U. after    6 cycles
 SCF Done:  E(RB3LYP) =  -555.601637433     A.U. after    6 cycles
 Optimization completed.
    -- Stationary point found.
 Normal termination of Gaussian 16 at Wed Dec  9 23:14:12 2020.

 --------------------------------------------------------------------
 #N Geom=AllCheck Guess=TCheck SCRF=Check GenChk RB3LYP/6-31G(d) Freq
 --------------------------------------------------------------------

 Structure from the checkpoint file:  "JID_3594.chk"
 -------------------------------
 CID_114794734_JID_3594_neutraal
 -------------------------------
 Charge =  0 Multiplicity = 1

 SCF Done:  E(RB3LYP) =  -555.601637433     A.U. after    1 cycles

  Exact polarizability: 131.326   4.049 119.721  13.063  -3.540  97.346
 Approx polarizability: 164.873   2.886 188.146  26.338  -9.562 152.673

                      1                      2                      3
                      A                      A                      A
 Frequencies --     35.8479                51.5369                61.8088
 Red. masses --      3.5043                 2.9535                 2.7085
 Frc consts  --      0.0027                 0.0046                 0.0061
 IR Inten    --      0.1463                 0.3110                 0.1671

                      4                      5                      6
                      A                      A                      A
 Frequencies --     75.5277               141.7772               149.3246
 Red. masses --      2.7400                 3.3448                 1.4414
 Frc consts  --      0.0092                 0.0396                 0.0189
 IR Inten    --      1.0659                 1.3778                 0.0822

                      7                      8                      9
                      A                      A                      A
 Frequencies --    169.2383               215.2944               251.1739
 Red. masses --      1.8780                 2.4669                 2.7851
 Frc consts  --      0.0317                 0.0674                 0.1035
 IR Inten    --      0.4423                 1.7063                 1.4651

                     10                     11                     12
                      A                      A                      A
 Frequencies --    275.9834               329.9514               406.1987
 Red. masses --      2.5556                 2.7879                 2.5664
 Frc consts  --      0.1147                 0.1788                 0.2495
 IR Inten    --      1.4636                 0.3453                 0.2435

                     13                     14                     15
                      A                      A                      A
 Frequencies --    457.8878               488.7169               586.9450
 Red. masses --      1.9798                 3.0545                 2.6637
 Frc consts  --      0.2446                 0.4298                 0.5407
 IR Inten    --      3.0845                 3.8344                 0.6893

                     16                     17                     18
                      A                      A                      A
 Frequencies --    638.8184               660.0381               664.1684
 Red. masses --      3.8579                 2.6359                 3.2494
 Frc consts  --      0.9276                 0.6766                 0.8445
 IR Inten    --      2.1830                 1.7981                 1.5382

                     19                     20                     21
                      A                      A                      A
 Frequencies --    680.8482               708.5044               792.1951
 Red. masses --      4.2847                 3.0849                 1.4008
 Frc consts  --      1.1702                 0.9124                 0.5179
 IR Inten    --     16.1351                 2.4837                 3.1957

                     22                     23                     24
                      A                      A                      A
 Frequencies --    816.4073               825.8452               829.5789
 Red. masses --      1.3711                 1.4430                 1.9952
 Frc consts  --      0.5384                 0.5799                 0.8090
 IR Inten    --     11.1029                22.2827                 6.5165

                     25                     26                     27
                      A                      A                      A
 Frequencies --    877.8660               904.0172               906.8119
 Red. masses --      1.4862                 2.1037                 2.7867
 Frc consts  --      0.6748                 1.0130                 1.3501
 IR Inten    --     26.3900                40.4966                13.8203

                     28                     29                     30
                      A                      A                      A
 Frequencies --    940.5046               947.4351               974.2917
 Red. masses --      2.9022                 2.3306                 2.6345
 Frc consts  --      1.5125                 1.2326                 1.4734
 IR Inten    --     13.9729                11.4189                 1.8507

                     31                     32                     33
                      A                      A                      A
 Frequencies --   1004.9699              1015.7222              1023.3143
 Red. masses --      1.6728                 1.5271                 1.9674
 Frc consts  --      0.9954                 0.9283                 1.2138
 IR Inten    --     26.5815                 2.1456                 3.6855

                     34                     35                     36
                      A                      A                      A
 Frequencies --   1054.8231              1079.5479              1092.4081
 Red. masses --      2.0307                 1.4385                 2.4258
 Frc consts  --      1.3313                 0.9878                 1.7056
 IR Inten    --      7.4842                 1.7620                17.0665

                     37                     38                     39
                      A                      A                      A
 Frequencies --   1117.6986              1139.0439              1152.3479
 Red. masses --      2.2027                 2.4908                 2.1450
 Frc consts  --      1.6213                 1.9040                 1.6782
 IR Inten    --      1.5218                15.7397                14.3223

                     40                     41                     42
                      A                      A                      A
 Frequencies --   1170.6884              1222.9882              1228.3112
 Red. masses --      1.7083                 1.7256                 1.3895
 Frc consts  --      1.3794                 1.5207                 1.2351
 IR Inten    --      5.9599                 3.9610                 3.6654

                     43                     44                     45
                      A                      A                      A
 Frequencies --   1246.5767              1269.9498              1276.5867
 Red. masses --      1.6094                 1.2665                 1.5032
 Frc consts  --      1.4735                 1.2034                 1.4433
 IR Inten    --     16.8248                 7.2833                11.9783

                     46                     47                     48
                      A                      A                      A
 Frequencies --   1302.1475              1306.4693              1316.5193
 Red. masses --      1.3834                 2.1108                 1.4890
 Frc consts  --      1.3820                 2.1227                 1.5205
 IR Inten    --      2.9607                12.9961                 3.6518

                     49                     50                     51
                      A                      A                      A
 Frequencies --   1337.3050              1356.8527              1370.9232
 Red. masses --      1.3699                 1.3368                 1.2983
 Frc consts  --      1.4434                 1.4501                 1.4376
 IR Inten    --      0.4996                 3.6437                 1.6736

                     52                     53                     54
                      A                      A                      A
 Frequencies --   1396.7595              1404.3974              1419.2994
 Red. masses --      1.3162                 1.6682                 3.2925
 Frc consts  --      1.5129                 1.9386                 3.9077
 IR Inten    --      3.9969                 6.0666                25.2376

                     55                     56                     57
                      A                      A                      A
 Frequencies --   1427.9413              1437.5663              1449.7469
 Red. masses --      1.5464                 1.9659                 1.3171
 Frc consts  --      1.8578                 2.3937                 1.6311
 IR Inten    --      9.8955                 5.7065                 6.5737

                     58                     59                     60
                      A                      A                      A
 Frequencies --   1484.0393              1503.6949              1509.6527
 Red. masses --      1.1823                 1.2336                 1.4075
 Frc consts  --      1.5342                 1.6433                 1.8899
 IR Inten    --     13.5231                18.1091                25.1080

                     61                     62                     63
                      A                      A                      A
 Frequencies --   1513.1781              1515.2152              1519.1829
 Red. masses --      1.0733                 1.1037                 1.0896
 Frc consts  --      1.4479                 1.4930                 1.4817
 IR Inten    --      2.6887                11.5863                 0.7569

                     64                     65                     66
                      A                      A                      A
 Frequencies --   1528.0241              1543.7946              1549.9239
 Red. masses --      1.0861                 1.1018                 1.7167
 Frc consts  --      1.4942                 1.5472                 2.4298
 IR Inten    --      3.1642                 1.0557                29.5883

                     67                     68                     69
                      A                      A                      A
 Frequencies --   1617.3696              3026.3444              3029.2983
 Red. masses --      5.2303                 1.0671                 1.0408
 Frc consts  --      8.0611                 5.7582                 5.6272
 IR Inten    --      4.6240                12.5544                41.6168

                     70                     71                     72
                      A                      A                      A
 Frequencies --   3039.5874              3050.8902              3061.5867
 Red. masses --      1.0752                 1.0723                 1.0657
 Frc consts  --      5.8531                 5.8808                 5.8852
 IR Inten    --      9.5526                37.4867                37.5936

                     73                     74                     75
                      A                      A                      A
 Frequencies --   3071.3042              3072.8102              3080.5991
 Red. masses --      1.1011                 1.0632                 1.0766
 Frc consts  --      6.1198                 5.9148                 6.0195
 IR Inten    --     29.2761                44.5147                16.0340

                     76                     77                     78
                      A                      A                      A
 Frequencies --   3085.2513              3097.0609              3112.1381
 Red. masses --      1.0832                 1.1001                 1.1007
 Frc consts  --      6.0751                 6.2173                 6.2813
 IR Inten    --     38.6921                18.2341                20.7328

                     79                     80                     81
                      A                      A                      A
 Frequencies --   3125.6473              3133.0573              3138.3338
 Red. masses --      1.1056                 1.0966                 1.1026
 Frc consts  --      6.3638                 6.3420                 6.3984
 IR Inten    --     61.1166                20.0097                13.0801

                     82                     83                     84
                      A                      A                      A
 Frequencies --   3248.4628              3267.5871              3423.6707
 Red. masses --      1.0961                 1.0975                 1.0734
 Frc consts  --      6.8146                 6.9040                 7.4130
 IR Inten    --     13.6847                 0.1871                 3.5941

 - Thermochemistry -
 -------------------
 Temperature   298.150 Kelvin.  Pressure   1.00000 Atm.
 Atom     1 has atomic number  6 and mass  12.00000

 Molecular mass:   179.14225 amu.
 Principal axes and moments of inertia in atomic units:
                           1         2         3
     Eigenvalues --  1184.920463864.241114336.68424
           X            0.99976   0.02171  -0.00061
           Y           -0.02171   0.99974   0.00627
           Z            0.00074  -0.00626   0.99998
 This molecule is an asymmetric top.
 Rotational symmetry number  1.
 Warning -- assumption of classical behavior for rotation
           may cause significant error
 Rotational temperatures (Kelvin)      0.07310     0.02241     0.01997
 Rotational constants (GHZ):           1.52309     0.46704     0.41616
 Zero-point vibrational energy     704798.8 (Joules/Mol)
                                  168.45095 (Kcal/Mol)
 Warning -- explicit consideration of  15 degrees of freedom as
           vibrations may cause significant error
 Vibrational temperatures:     51.58    74.15    88.93   108.67   203.99
          (Kelvin)            214.84   243.50   309.76   361.38   397.08
                              474.73   584.43   658.80   703.15   844.48
                              919.12   949.65   955.59   979.59  1019.38
                             1139.79  1174.63  1188.21  1193.58  1263.05
                             1300.68  1304.70  1353.18  1363.15  1401.79
                             1445.93  1461.40  1472.32  1517.66  1553.23
                             1571.73  1608.12  1638.83  1657.97  1684.36
                             1759.61  1767.27  1793.55  1827.17  1836.72
                             1873.50  1879.72  1894.18  1924.08  1952.21
                             1972.45  2009.63  2020.61  2042.06  2054.49
                             2068.34  2085.86  2135.20  2163.48  2172.05
                             2177.13  2180.06  2185.77  2198.49  2221.18
                             2229.99  2327.03  4354.23  4358.48  4373.29
                             4389.55  4404.94  4418.92  4421.09  4432.29
                             4438.99  4455.98  4477.67  4497.11  4507.77
                             4515.36  4673.81  4701.33  4925.90

 Zero-point correction=                           0.268444 (Hartree/Particle)
 Thermal correction to Energy=                    0.281000
 Thermal correction to Enthalpy=                  0.281944
 Thermal correction to Gibbs Free Energy=         0.228143
 Sum of electronic and zero-point Energies=           -555.333194
 Sum of electronic and thermal Energies=              -555.320638
 Sum of electronic and thermal Enthalpies=            -555.319693
 Sum of electronic and thermal Free Energies=         -555.373495

                     E (Thermal)             CV                S
                      KCal/Mol        Cal/Mol-Kelvin    Cal/Mol-Kelvin
 Total                  176.330             47.265            113.234
 Electronic               0.000              0.000              0.000
 Translational            0.889              2.981             41.456
 Rotational               0.889              2.981             31.363
 Vibrational            174.553             41.303             40.415
 Vibration     1          0.594              1.982              5.476
 Vibration     2          0.596              1.977              4.758
 Vibration     3          0.597              1.973              4.399
 Vibration     4          0.599              1.965              4.004
 Vibration     5          0.615              1.911              2.780
 Vibration     6          0.618              1.903              2.681
 Vibration     7          0.625              1.880              2.444
 Vibration     8          0.645              1.818              1.998
 Vibration     9          0.663              1.761              1.722
 Vibration    10          0.678              1.718              1.558
 Vibration    11          0.713              1.616              1.260
 Vibration    12          0.771              1.457              0.940
 Vibration    13          0.816              1.343              0.772
 Vibration    14          0.845              1.275              0.687
 Vibration    15          0.944              1.060              0.473

 Optimization completed.
    -- Stationary point found.
 Normal termination of Gaussian 16 at Wed Dec  9 23:21:40 2020.

 ----------------------------------------------------------------------
 # B3LYP/6-311++G(d,p) empiricaldispersion=gd3bj scf=xqc pop=npa geom=c
 heck
 ----------------------------------------------------------------------

 ---------------------------------------
 CID_114794734_JID_3594_Energie_neutraal
 ---------------------------------------
 Structure from the checkpoint file:  "JID_3594.chk"
 Charge =  0 Multiplicity = 1

 SCF Done:  E(RB3LYP) =  -555.753685427     A.U. after   14 cycles
 Normal termination of Gaussian 16 at Wed Dec  9 23:24:30 2020.

 ----------------------------------------------------------------------
 # B3LYP/6-311++G(d,p) empiricaldispersion=gd3bj scf=xqc pop=npa geom=c
 heck
 ----------------------------------------------------------------------

 -------------------------------------
 CID_114794734_JID_3594_Energie_kation
 -------------------------------------
 Structure from the checkpoint file:  "JID_3594.chk"
 Charge =  1 Multiplicity = 2

 SCF Done:  E(UB3LYP) =  -555.464507677     A.U. after   22 cycles
 Normal termination of Gaussian 16 at Wed Dec  9 23:30:29 2020.
 Gaussian 16:  ES64L-G16RevA.03 25-Dec-2016

 ----------------------------------------------------------------------
 # B3LYP/6-311++G(d,p) empiricaldispersion=gd3bj scf=xqc pop=npa geom=c
 heck
 ----------------------------------------------------------------------

 ------------------------------------
 CID_114794734_JID_3594_Energie_anion
 ------------------------------------
 Structure from the checkpoint file:  "JID_3594.chk"
 Charge = -1 Multiplicity = 2

                         Standard orientation:
 ---------------------------------------------------------------------
 Center     Atomic      Atomic             Coordinates (Angstroms)
 Number     Number       Type             X           Y           Z
 ---------------------------------------------------------------------
      1          6           0       -3.134438   -1.551013   -0.492042
      2          6           0       -2.574216   -0.183366   -0.289639
      3          6           0       -2.936988    1.042515   -0.797648
      4          7           0       -2.127480    2.046140   -0.308707
      5          6           0       -1.278366    1.438161    0.492282
      6          7           0       -1.502636    0.085836    0.552527
      7          6           0       -0.684879   -0.881688    1.266835
      8          6           0        0.438758   -1.469727    0.400573
      9          6           0        1.379931   -0.408453   -0.156111
     10          6           0        2.576395   -0.948382   -0.972930
     11          6           0        3.653172    0.160215   -0.836674
     12          6           0        3.062847    1.135809    0.224606
     13          7           0        1.965942    0.428600    0.907521
     14          1           0       -2.405338   -2.246462   -0.928978
     15          1           0       -3.987324   -1.497071   -1.174330
     16          1           0       -3.490266   -1.999198    0.445445
     17          1           0       -3.746258    1.254254   -1.484696
     18          1           0       -0.465701    1.892578    1.043042
     19          1           0       -0.254676   -0.369034    2.130076
     20          1           0       -1.334602   -1.679400    1.640196
     21          1           0        1.007698   -2.185053    1.012877
     22          1           0        0.008528   -2.040728   -0.431057
     23          1           0        0.800014    0.270358   -0.795568
     24          1           0        2.930199   -1.888996   -0.531456
     25          1           0        2.309262   -1.158842   -2.013515
     26          1           0        4.608759   -0.258429   -0.504720
     27          1           0        3.839329    0.671696   -1.786236
     28          1           0        3.798973    1.488863    0.952149
     29          1           0        2.638029    2.017851   -0.268389
     30          1           0        2.379293   -0.200835    1.600269
 ---------------------------------------------------------------------

 SCF Done:  E(UB3LYP) =  -555.743043339     A.U. after   30 cycles

 The electronic state is 2-A.
 Alpha  occ. eigenvalues --  -14.26226 -14.19713 -14.18837 -10.11221 -10.11178
 Alpha  occ. eigenvalues --  -10.10105 -10.09538 -10.09208 -10.07843 -10.07607
 Alpha  occ. eigenvalues --  -10.07224 -10.06773 -10.06513  -0.91267  -0.82367
 Alpha  occ. eigenvalues --   -0.78363  -0.68806  -0.66821  -0.65767  -0.61311
 Alpha  occ. eigenvalues --   -0.58924  -0.54585  -0.49742  -0.49557  -0.47689
 Alpha  occ. eigenvalues --   -0.45005  -0.41643  -0.38937  -0.38113  -0.36242
 Alpha  occ. eigenvalues --   -0.35394  -0.34371  -0.33364  -0.32178  -0.31580
 Alpha  occ. eigenvalues --   -0.30508  -0.29718  -0.29618  -0.28546  -0.27490
 Alpha  occ. eigenvalues --   -0.25227  -0.25168  -0.24010  -0.23279  -0.22299
 Alpha  occ. eigenvalues --   -0.17066  -0.16616  -0.14068  -0.12205   0.04289
 Alpha virt. eigenvalues --    0.06299   0.07491   0.08107   0.08671   0.09096
 Alpha virt. eigenvalues --    0.09388   0.10484   0.10852   0.10931   0.11280
 Alpha virt. eigenvalues --    0.12041   0.12705   0.12912   0.13429   0.14088

  Beta  occ. eigenvalues --  -14.26227 -14.19684 -14.18834 -10.11217 -10.11153
  Beta  occ. eigenvalues --  -10.10101 -10.09538 -10.09194 -10.07798 -10.07604
  Beta  occ. eigenvalues --  -10.07187 -10.06756 -10.06491  -0.91261  -0.82323
  Beta  occ. eigenvalues --   -0.78350  -0.68768  -0.66783  -0.65714  -0.61272
  Beta  occ. eigenvalues --   -0.58876  -0.54521  -0.49684  -0.49539  -0.47635
  Beta  occ. eigenvalues --   -0.44963  -0.41606  -0.38881  -0.38071  -0.36215
  Beta  occ. eigenvalues --   -0.35352  -0.34335  -0.33313  -0.32145  -0.31524
  Beta  occ. eigenvalues --   -0.30488  -0.29682  -0.29583  -0.28505  -0.27453
  Beta  occ. eigenvalues --   -0.25191  -0.25118  -0.23969  -0.23244  -0.22255
  Beta  occ. eigenvalues --   -0.17058  -0.16598  -0.14030  -0.12184
  Beta virt. eigenvalues --    0.06754   0.07215   0.08178   0.08584   0.09179
  Beta virt. eigenvalues --    0.09493   0.09798   0.10950   0.11123   0.11355
  Beta virt. eigenvalues --    0.11628   0.12286   0.12928   0.13212   0.13686

 Mulliken charges and spin densities:
               1          2
     1  C    1.334803  -2.035762
     2  C   -0.878846   1.286369
     3  C    0.189128  -0.644535
     4  N   -0.075947   0.009610
     5  C   -0.456490   0.152695
     6  N    0.175784   0.051416
     7  C   -0.485919  -0.035364
     8  C    0.845687  -0.996007
     9  C   -0.531846   0.445581
    10  C    0.885019  -1.478053
    11  C   -0.073669  -0.179738
    12  C    0.066028  -0.417542
    13  N   -0.055951   0.120795
    14  H   -0.402906   0.552307
    15  H   -0.054444   0.206021
    16  H   -0.258870   0.429731
    17  H    0.051043   0.074367
    18  H    0.100029   0.081715
    19  H   -0.062498   0.246761
    20  H   -0.520461   0.703668
    21  H   -0.604008   0.776420
    22  H    0.160114  -0.005471
    23  H    0.208011  -0.012015
    24  H   -0.309334   0.477698
    25  H    0.066303   0.074542
    26  H   -0.157059   0.295158
    27  H   -0.035223   0.158154
    28  H   -0.344026   0.509284
    29  H    0.229421  -0.088837
    30  H   -0.003871   0.241034
 Sum of Mulliken charges =  -1.00000   1.00000

 Dipole moment (field-independent basis, Debye):
    X=             -1.0347    Y=              3.5989    Z=             -2.5214  Tot=              4.5144
 Quadrupole moment (field-independent basis, Debye-Ang):
   XX=           -147.8281   YY=           -132.5137   ZZ=           -112.1911
   XY=              4.0116   XZ=             -5.7305   YZ=              5.2333

 Summary of Natural Population Analysis:

                                       Natural Population
                Natural  -----------------------------------------------
    Atom  No    Charge         Core      Valence    Rydberg      Total
 -----------------------------------------------------------------------
      C    1   -0.30220      0.99964     2.29734    0.00522     3.30220
      C    2    0.06001      0.99952     1.92776    0.01271     2.93999
      C    3   -0.04188      0.99951     2.02913    0.01324     3.04188
      N    4   -0.26144      0.99973     2.75058    0.01112     3.76144
      C    5    0.10314      0.99963     1.88122    0.01600     2.89686
      N    6   -0.21024      0.99962     2.70014    0.01048     3.71024
      C    7   -0.08312      0.99960     2.07104    0.01248     3.08312
      C    8   -0.19424      0.99959     2.18458    0.01007     3.19424
      C    9   -0.01601      0.99959     2.00405    0.01236     3.01601
      C   10   -0.19580      0.99962     2.18804    0.00814     3.19580
      C   11   -0.20268      0.99965     2.19545    0.00759     3.20268
      C   12   -0.09036      0.99965     2.07977    0.01094     3.09036
      N   13   -0.34047      0.99976     2.82765    0.01307     3.84047
      H   14    0.10687      0.00000     0.39145    0.00168     0.39313
      H   15    0.10776      0.00000     0.39143    0.00080     0.39224
      H   16    0.10642      0.00000     0.39207    0.00151     0.39358
      H   17    0.09315      0.00000     0.40576    0.00109     0.40685
      H   18    0.10100      0.00000     0.39735    0.00166     0.39900
      H   19    0.10662      0.00000     0.39156    0.00182     0.39338
      H   20    0.10441      0.00000     0.39372    0.00187     0.39559
      H   21    0.10520      0.00000     0.39128    0.00352     0.39480
      H   22    0.10264      0.00000     0.39581    0.00155     0.39736
      H   23    0.09237      0.00000     0.40512    0.00251     0.40763
      H   24    0.09946      0.00000     0.39854    0.00200     0.40054
      H   25    0.09947      0.00000     0.39961    0.00092     0.40053
      H   26    0.09968      0.00000     0.39871    0.00161     0.40032
      H   27    0.09497      0.00000     0.40408    0.00094     0.40503
      H   28    0.09614      0.00000     0.40284    0.00103     0.40386
      H   29    0.08705      0.00000     0.41162    0.00133     0.41295
      H   30    0.17209      0.00000     0.32394    0.00396     0.32791
 =======================================================================
   * Total *   -0.00000     12.99511    35.83165    0.17324    49.00000

 Normal termination of Gaussian 16 at Wed Dec  9 23:38:23 2020.
