 Gaussian 16, Revision A.03,

 -----------------------------------------------------------
 # opt freq B3LYP/6-31G(d) empiricaldispersion=gd3bj scf=xqc
 -----------------------------------------------------------

 ------------------------------
 CID_87536264_JID_3179_neutraal
 ------------------------------
 Symbolic Z-matrix:
 Charge =  0 Multiplicity = 1

 SCF Done:  E(RB3LYP) =  -598.974352960     A.U. after   14 cycles
 SCF Done:  E(RB3LYP) =  -598.978732465     A.U. after   12 cycles
 SCF Done:  E(RB3LYP) =  -598.978767854     A.U. after   12 cycles
 SCF Done:  E(RB3LYP) =  -598.979315082     A.U. after   10 cycles
 SCF Done:  E(RB3LYP) =  -598.979603833     A.U. after   11 cycles
 SCF Done:  E(RB3LYP) =  -598.979816839     A.U. after   12 cycles
 SCF Done:  E(RB3LYP) =  -598.979989330     A.U. after   10 cycles
 SCF Done:  E(RB3LYP) =  -598.980068875     A.U. after   11 cycles
 SCF Done:  E(RB3LYP) =  -598.980166385     A.U. after   10 cycles
 SCF Done:  E(RB3LYP) =  -598.980223653     A.U. after   11 cycles
 SCF Done:  E(RB3LYP) =  -598.980268722     A.U. after   10 cycles
 SCF Done:  E(RB3LYP) =  -598.980284753     A.U. after    9 cycles
 SCF Done:  E(RB3LYP) =  -598.980287385     A.U. after    9 cycles
 SCF Done:  E(RB3LYP) =  -598.980287360     A.U. after    9 cycles
 SCF Done:  E(RB3LYP) =  -598.980288115     A.U. after    7 cycles
 SCF Done:  E(RB3LYP) =  -598.980288211     A.U. after    7 cycles
 Optimization completed.
    -- Stationary point found.
 Normal termination of Gaussian 16 at Wed Dec  9 22:35:30 2020.

 --------------------------------------------------------------------
 #N Geom=AllCheck Guess=TCheck SCRF=Check GenChk RB3LYP/6-31G(d) Freq
 --------------------------------------------------------------------

 Structure from the checkpoint file:  "JID_3179.chk"
 ------------------------------
 CID_87536264_JID_3179_neutraal
 ------------------------------
 Charge =  0 Multiplicity = 1

 SCF Done:  E(RB3LYP) =  -598.980288211     A.U. after    1 cycles

  Exact polarizability: 123.630   0.093 115.970  -0.672  -0.837 107.566
 Approx polarizability: 166.458  -5.485 156.362  -4.713  -2.032 163.939

                      1                      2                      3
                      A                      A                      A
 Frequencies --     37.5228                54.2087                94.1713
 Red. masses --      5.7509                 2.1509                 3.3841
 Frc consts  --      0.0048                 0.0037                 0.0177
 IR Inten    --      1.5271                 0.0816                 0.1880

                      4                      5                      6
                      A                      A                      A
 Frequencies --    109.1793               122.9304               128.5145
 Red. masses --      3.1893                 2.5323                 3.7704
 Frc consts  --      0.0224                 0.0225                 0.0367
 IR Inten    --      1.6963                 0.0043                 0.0991

                      7                      8                      9
                      A                      A                      A
 Frequencies --    163.9947               186.3291               211.5987
 Red. masses --      2.2039                 3.3156                 1.3889
 Frc consts  --      0.0349                 0.0678                 0.0366
 IR Inten    --      0.1885                 5.2478                 7.6226

                     10                     11                     12
                      A                      A                      A
 Frequencies --    225.0177               238.1171               253.6684
 Red. masses --      1.6830                 1.3523                 1.2430
 Frc consts  --      0.0502                 0.0452                 0.0471
 IR Inten    --      8.7566                32.3109                 0.3783

                     13                     14                     15
                      A                      A                      A
 Frequencies --    261.9549               276.2952               292.8001
 Red. masses --      2.1409                 1.3597                 2.8185
 Frc consts  --      0.0866                 0.0612                 0.1424
 IR Inten    --      0.4404                 0.4774                 3.4175

                     16                     17                     18
                      A                      A                      A
 Frequencies --    347.3495               363.9727               392.6947
 Red. masses --      2.4073                 2.4524                 3.8601
 Frc consts  --      0.1711                 0.1914                 0.3507
 IR Inten    --      0.4474                 3.1436                 3.1197

                     19                     20                     21
                      A                      A                      A
 Frequencies --    424.9271               436.4130               468.7543
 Red. masses --      2.2063                 2.1636                 2.8709
 Frc consts  --      0.2347                 0.2428                 0.3717
 IR Inten    --      3.5218                 0.4216                 2.1767

                     22                     23                     24
                      A                      A                      A
 Frequencies --    489.5839               539.2722               607.0169
 Red. masses --      2.6613                 2.7421                 2.6705
 Frc consts  --      0.3758                 0.4698                 0.5798
 IR Inten    --     11.3203                 3.0863                27.3490

                     25                     26                     27
                      A                      A                      A
 Frequencies --    657.4596               699.3602               772.6974
 Red. masses --      1.3839                 2.3895                 2.6002
 Frc consts  --      0.3524                 0.6886                 0.9147
 IR Inten    --     48.3800                35.0947                45.9165

                     28                     29                     30
                      A                      A                      A
 Frequencies --    783.4163               800.5828               824.8423
 Red. masses --      1.2302                 1.9740                 1.6994
 Frc consts  --      0.4448                 0.7454                 0.6812
 IR Inten    --      8.9665                 3.3586                 5.5947

                     31                     32                     33
                      A                      A                      A
 Frequencies --    875.5852               890.8869               892.2955
 Red. masses --      1.9851                 1.8622                 2.1660
 Frc consts  --      0.8967                 0.8708                 1.0161
 IR Inten    --     63.2438                39.1241                 5.1553

                     34                     35                     36
                      A                      A                      A
 Frequencies --    914.1460               932.7027               975.7254
 Red. masses --      1.9027                 1.3909                 1.7321
 Frc consts  --      0.9368                 0.7129                 0.9716
 IR Inten    --     13.8288                14.4328                 0.8759

                     37                     38                     39
                      A                      A                      A
 Frequencies --   1019.3732              1036.3272              1044.3665
 Red. masses --      1.9840                 1.8654                 1.6287
 Frc consts  --      1.2147                 1.1804                 1.0467
 IR Inten    --      1.7347                 8.1346                 3.5959

                     40                     41                     42
                      A                      A                      A
 Frequencies --   1079.4205              1102.0874              1106.6860
 Red. masses --      2.6034                 2.1322                 1.9598
 Frc consts  --      1.7872                 1.5258                 1.4142
 IR Inten    --      0.9160                 2.4266                 7.6137

                     43                     44                     45
                      A                      A                      A
 Frequencies --   1117.9786              1146.5934              1157.6211
 Red. masses --      1.8659                 1.9611                 2.2326
 Frc consts  --      1.3741                 1.5191                 1.7628
 IR Inten    --      7.7138                79.1527                77.2324

                     46                     47                     48
                      A                      A                      A
 Frequencies --   1183.6152              1194.9240              1213.5762
 Red. masses --      1.8991                 2.3266                 2.5583
 Frc consts  --      1.5675                 1.9573                 2.2199
 IR Inten    --     71.6826                22.1448                14.9873

                     49                     50                     51
                      A                      A                      A
 Frequencies --   1260.6774              1300.3222              1316.9490
 Red. masses --      1.6717                 1.2942                 1.2207
 Frc consts  --      1.5654                 1.2893                 1.2473
 IR Inten    --     24.9937                 1.8111                 2.7355

                     52                     53                     54
                      A                      A                      A
 Frequencies --   1322.0365              1328.9597              1356.3811
 Red. masses --      1.2006                 1.2087                 1.8051
 Frc consts  --      1.2363                 1.2578                 1.9566
 IR Inten    --      0.6648                 0.6725                17.8495

                     55                     56                     57
                      A                      A                      A
 Frequencies --   1379.2331              1387.9779              1402.7232
 Red. masses --      1.3168                 1.4120                 1.3365
 Frc consts  --      1.4759                 1.6027                 1.5494
 IR Inten    --      5.1825                 4.0465                 1.6800

                     58                     59                     60
                      A                      A                      A
 Frequencies --   1406.1350              1421.3586              1428.6446
 Red. masses --      1.3768                 1.3780                 1.3607
 Frc consts  --      1.6039                 1.6402                 1.6362
 IR Inten    --      5.1713                 1.2171                11.2608

                     61                     62                     63
                      A                      A                      A
 Frequencies --   1443.1367              1445.5121              1449.3386
 Red. masses --      1.2337                 1.2351                 1.2661
 Frc consts  --      1.5138                 1.5205                 1.5670
 IR Inten    --      3.1651                 9.2205                 6.5578

                     64                     65                     66
                      A                      A                      A
 Frequencies --   1512.2747              1514.5538              1522.2330
 Red. masses --      1.0726                 1.0659                 1.0425
 Frc consts  --      1.4453                 1.4406                 1.4233
 IR Inten    --      0.2461                 4.0882                 1.8263

                     67                     68                     69
                      A                      A                      A
 Frequencies --   1522.6750              1527.2610              1532.5715
 Red. masses --      1.0584                 1.0486                 1.0566
 Frc consts  --      1.4459                 1.4411                 1.4622
 IR Inten    --      2.1275                 0.9932                13.7355

                     70                     71                     72
                      A                      A                      A
 Frequencies --   1534.9674              1536.7040              1542.8685
 Red. masses --      1.0582                 1.0568                 1.0702
 Frc consts  --      1.4690                 1.4703                 1.5010
 IR Inten    --      0.8789                 4.9962                 9.2073

                     73                     74                     75
                      A                      A                      A
 Frequencies --   1543.7244              1695.0152              1818.0315
 Red. masses --      1.0708                 1.0887                 9.1987
 Frc consts  --      1.5035                 1.8429                17.9134
 IR Inten    --      5.1471                34.5264               210.3551

                     76                     77                     78
                      A                      A                      A
 Frequencies --   3040.0667              3042.5611              3045.7149
 Red. masses --      1.0652                 1.0618                 1.0817
 Frc consts  --      5.8004                 5.7910                 5.9122
 IR Inten    --     40.4008                13.2745                15.3194

                     79                     80                     81
                      A                      A                      A
 Frequencies --   3048.1062              3051.5756              3052.2513
 Red. masses --      1.0402                 1.0369                 1.0398
 Frc consts  --      5.6939                 5.6891                 5.7075
 IR Inten    --     33.1545                22.6393                26.1043

                     82                     83                     84
                      A                      A                      A
 Frequencies --   3059.6872              3072.7195              3074.0031
 Red. masses --      1.0732                 1.0889                 1.0974
 Frc consts  --      5.9193                 6.0575                 6.1098
 IR Inten    --     40.5383                27.9522                 3.2808

                     85                     86                     87
                      A                      A                      A
 Frequencies --   3089.0682              3107.4707              3111.0294
 Red. masses --      1.0733                 1.1021                 1.1010
 Frc consts  --      6.0341                 6.2702                 6.2785
 IR Inten    --     41.7136                44.9886                67.4246

                     88                     89                     90
                      A                      A                      A
 Frequencies --   3115.1546              3123.3167              3131.1031
 Red. masses --      1.0993                 1.0963                 1.1014
 Frc consts  --      6.2855                 6.3012                 6.3619
 IR Inten    --     14.1988                21.9212                37.7125

                     91                     92                     93
                      A                      A                      A
 Frequencies --   3138.7747              3141.1968              3148.0591
 Red. masses --      1.1013                 1.0997                 1.0950
 Frc consts  --      6.3927                 6.3931                 6.3938
 IR Inten    --     25.7277                23.9570                11.6144

                     94                     95                     96
                      A                      A                      A
 Frequencies --   3468.3043              3553.6864              3671.6420
 Red. masses --      1.0492                 1.0926                 1.0639
 Frc consts  --      7.4357                 8.1297                 8.4501
 IR Inten    --      1.8808                 0.3636                48.1498

 - Thermochemistry -
 -------------------
 Temperature   298.150 Kelvin.  Pressure   1.00000 Atm.
 Atom     1 has atomic number  6 and mass  12.00000

 Molecular mass:   187.15723 amu.
 Principal axes and moments of inertia in atomic units:
                           1         2         3
     Eigenvalues --  2131.623272575.492793345.25977
           X            0.99831   0.05785  -0.00471
           Y           -0.05768   0.99785   0.03098
           Z            0.00650  -0.03065   0.99951
 This molecule is an asymmetric top.
 Rotational symmetry number  1.
 Warning -- assumption of classical behavior for rotation
           may cause significant error
 Rotational temperatures (Kelvin)      0.04063     0.03363     0.02589
 Rotational constants (GHZ):           0.84665     0.70074     0.53949
 Zero-point vibrational energy     812780.7 (Joules/Mol)
                                  194.25924 (Kcal/Mol)
 Warning -- explicit consideration of  24 degrees of freedom as
           vibrations may cause significant error
 Vibrational temperatures:     53.99    77.99   135.49   157.08   176.87
          (Kelvin)            184.90   235.95   268.09   304.44   323.75
                              342.60   364.97   376.89   397.53   421.27
                              499.76   523.68   565.00   611.38   627.90
                              674.43   704.40   775.89   873.36   945.94
                             1006.22  1111.74  1127.16  1151.86  1186.76
                             1259.77  1281.79  1283.81  1315.25  1341.95
                             1403.85  1466.65  1491.04  1502.61  1553.05
                             1585.66  1592.27  1608.52  1649.69  1665.56
                             1702.96  1719.23  1746.07  1813.83  1870.87
                             1894.80  1902.12  1912.08  1951.53  1984.41
                             1996.99  2018.21  2023.11  2045.02  2055.50
                             2076.35  2079.77  2085.27  2175.83  2179.11
                             2190.15  2190.79  2197.39  2205.03  2208.48
                             2210.97  2219.84  2221.08  2438.75  2615.74
                             4373.98  4377.57  4382.10  4385.54  4390.54
                             4391.51  4402.21  4420.96  4422.80  4444.48
                             4470.96  4476.08  4482.01  4493.76  4504.96
                             4516.00  4519.48  4529.35  4990.12  5112.96
                             5282.67

 Zero-point correction=                           0.309572 (Hartree/Particle)
 Thermal correction to Energy=                    0.325286
 Thermal correction to Enthalpy=                  0.326230
 Thermal correction to Gibbs Free Energy=         0.267522
 Sum of electronic and zero-point Energies=           -598.670716
 Sum of electronic and thermal Energies=              -598.655003
 Sum of electronic and thermal Enthalpies=            -598.654058
 Sum of electronic and thermal Free Energies=         -598.712767

                     E (Thermal)             CV                S
                      KCal/Mol        Cal/Mol-Kelvin    Cal/Mol-Kelvin
 Total                  204.120             58.926            123.562
 Electronic               0.000              0.000              0.000
 Translational            0.889              2.981             41.586
 Rotational               0.889              2.981             31.285
 Vibrational            202.342             52.964             50.690
 Vibration     1          0.594              1.982              5.386
 Vibration     2          0.596              1.976              4.658
 Vibration     3          0.603              1.953              3.571
 Vibration     4          0.606              1.942              3.283
 Vibration     5          0.610              1.930              3.054
 Vibration     6          0.611              1.925              2.968
 Vibration     7          0.623              1.887              2.503
 Vibration     8          0.632              1.859              2.264
 Vibration     9          0.643              1.823              2.030
 Vibration    10          0.650              1.803              1.918
 Vibration    11          0.656              1.782              1.817
 Vibration    12          0.665              1.757              1.705
 Vibration    13          0.669              1.742              1.649
 Vibration    14          0.678              1.717              1.556
 Vibration    15          0.688              1.687              1.458
 Vibration    16          0.725              1.581              1.178
 Vibration    17          0.738              1.546              1.105
 Vibration    18          0.760              1.486              0.990
 Vibration    19          0.787              1.416              0.875
 Vibration    20          0.797              1.391              0.838
 Vibration    21          0.826              1.319              0.741
 Vibration    22          0.845              1.273              0.685
 Vibration    23          0.894              1.163              0.567
 Vibration    24          0.966              1.017              0.438

                           ! Non-Optimized Parameters !
 Normal termination of Gaussian 16 at Wed Dec  9 22:47:22 2020.

 ----------------------------------------------------------------------
 # B3LYP/6-311++G(d,p) empiricaldispersion=gd3bj scf=xqc pop=npa geom=c
 heck
 ----------------------------------------------------------------------

 --------------------------------------
 CID_87536264_JID_3179_Energie_neutraal
 --------------------------------------
 Structure from the checkpoint file:  "JID_3179.chk"
 Charge =  0 Multiplicity = 1

 SCF Done:  E(RB3LYP) =  -599.167728980     A.U. after   15 cycles
 Normal termination of Gaussian 16 at Wed Dec  9 22:53:27 2020.

 ----------------------------------------------------------------------
 # B3LYP/6-311++G(d,p) empiricaldispersion=gd3bj scf=xqc pop=npa geom=c
 heck
 ----------------------------------------------------------------------

 ------------------------------------
 CID_87536264_JID_3179_Energie_kation
 ------------------------------------
 Structure from the checkpoint file:  "JID_3179.chk"
 Charge =  1 Multiplicity = 2

 SCF Done:  E(UB3LYP) =  -598.838224223     A.U. after   24 cycles
 Normal termination of Gaussian 16 at Wed Dec  9 23:06:53 2020.
 Gaussian 16:  ES64L-G16RevA.03 25-Dec-2016

 ----------------------------------------------------------------------
 # B3LYP/6-311++G(d,p) empiricaldispersion=gd3bj scf=xqc pop=npa geom=c
 heck
 ----------------------------------------------------------------------

 -----------------------------------
 CID_87536264_JID_3179_Energie_anion
 -----------------------------------
 Structure from the checkpoint file:  "JID_3179.chk"
 Charge = -1 Multiplicity = 2

                         Standard orientation:
 ---------------------------------------------------------------------
 Center     Atomic      Atomic             Coordinates (Angstroms)
 Number     Number       Type             X           Y           Z
 ---------------------------------------------------------------------
      1          6           0        2.831160    1.522634    0.189859
      2          6           0        1.744077    1.776343   -0.859831
      3          6           0        0.894364    0.553063   -1.239347
      4          6           0        0.051090   -0.090258   -0.105394
      5          6           0       -0.635578    0.974538    0.791095
      6          6           0       -1.594469    1.938569    0.052798
      7          6           0       -3.076707    1.638876    0.304311
      8          6           0       -1.029752   -1.034073   -0.750760
      9          6           0       -0.449971   -2.113299   -1.678497
     10          7           0       -1.913607   -1.581670    0.288781
     11          6           0        0.976644   -0.983950    0.723326
     12          8           0        1.952652   -1.573283    0.306503
     13          8           0        0.574111   -1.139263    2.014307
     14          1           0        2.406657    1.265729    1.167081
     15          1           0        3.447691    2.417805    0.329047
     16          1           0        3.484568    0.696587   -0.107959
     17          1           0        1.095549    2.595345   -0.526002
     18          1           0        2.223196    2.133373   -1.780970
     19          1           0        0.211881    0.847585   -2.045218
     20          1           0        1.553814   -0.214360   -1.652373
     21          1           0       -1.185873    0.458532    1.578570
     22          1           0        0.150413    1.548656    1.290566
     23          1           0       -1.383597    2.966424    0.373648
     24          1           0       -1.400268    1.927360   -1.026394
     25          1           0       -3.318933    1.763614    1.366508
     26          1           0       -3.721307    2.315990   -0.268487
     27          1           0       -3.322435    0.606374    0.041479
     28          1           0       -1.653458   -0.369816   -1.362297
     29          1           0        0.214710   -2.794102   -1.137315
     30          1           0       -1.271258   -2.702452   -2.103659
     31          1           0        0.115553   -1.686991   -2.512426
     32          1           0       -2.581374   -2.216881   -0.145125
     33          1           0       -1.376998   -2.136395    0.954082
     34          1           0        1.227474   -1.744968    2.413944
 ---------------------------------------------------------------------

 SCF Done:  E(UB3LYP) =  -599.153091028     A.U. after   32 cycles

 The electronic state is 2-A.
 Alpha  occ. eigenvalues --  -19.06864 -19.01410 -14.18700 -10.20395 -10.10669
 Alpha  occ. eigenvalues --  -10.09831 -10.06948 -10.06746 -10.06630 -10.06059
 Alpha  occ. eigenvalues --  -10.05858 -10.05484 -10.05385  -1.01012  -0.91846
 Alpha  occ. eigenvalues --   -0.79274  -0.72423  -0.67648  -0.65570  -0.61920
 Alpha  occ. eigenvalues --   -0.58373  -0.56159  -0.52560  -0.49434  -0.48724
 Alpha  occ. eigenvalues --   -0.44748  -0.40948  -0.39314  -0.38689  -0.36342
 Alpha  occ. eigenvalues --   -0.35604  -0.33833  -0.33677  -0.33088  -0.32368
 Alpha  occ. eigenvalues --   -0.31338  -0.30970  -0.29896  -0.29582  -0.28903
 Alpha  occ. eigenvalues --   -0.26266  -0.25863  -0.25230  -0.24644  -0.24306
 Alpha  occ. eigenvalues --   -0.23889  -0.23108  -0.22441  -0.21510  -0.20568
 Alpha  occ. eigenvalues --   -0.17647  -0.14110   0.04480
 Alpha virt. eigenvalues --    0.06439   0.06565   0.07491   0.08552   0.08843
 Alpha virt. eigenvalues --    0.09453   0.09722   0.09870   0.10593   0.11409
 Alpha virt. eigenvalues --    0.11680   0.12588   0.12821   0.13172   0.13353

  Beta  occ. eigenvalues --  -19.06817 -19.01395 -14.18664 -10.20395 -10.10657
  Beta  occ. eigenvalues --  -10.09825 -10.06937 -10.06737 -10.06619 -10.06049
  Beta  occ. eigenvalues --  -10.05837 -10.05457 -10.05369  -1.00954  -0.91795
  Beta  occ. eigenvalues --   -0.79217  -0.72388  -0.67625  -0.65533  -0.61871
  Beta  occ. eigenvalues --   -0.58332  -0.56111  -0.52485  -0.49375  -0.48674
  Beta  occ. eigenvalues --   -0.44689  -0.40911  -0.39283  -0.38659  -0.36311
  Beta  occ. eigenvalues --   -0.35563  -0.33798  -0.33646  -0.33056  -0.32335
  Beta  occ. eigenvalues --   -0.31300  -0.30942  -0.29869  -0.29547  -0.28872
  Beta  occ. eigenvalues --   -0.26235  -0.25829  -0.25197  -0.24612  -0.24280
  Beta  occ. eigenvalues --   -0.23862  -0.23082  -0.22410  -0.21488  -0.20545
  Beta  occ. eigenvalues --   -0.17594  -0.14066
  Beta virt. eigenvalues --    0.06551   0.07476   0.07627   0.07842   0.08951
  Beta virt. eigenvalues --    0.09350   0.09719   0.09967   0.10105   0.10777
  Beta virt. eigenvalues --    0.11765   0.12216   0.12725   0.13154   0.13384

 Mulliken charges and spin densities:
               1          2
     1  C    0.074896  -0.638716
     2  C   -0.035071  -0.371532
     3  C   -0.212281  -0.006750
     4  C    1.107064  -0.389460
     5  C    0.540582  -0.632578
     6  C   -0.714227   0.514401
     7  C    0.224558  -0.856743
     8  C   -2.459875   1.726146
     9  C    1.325210  -1.889816
    10  N   -0.095213  -0.184730
    11  C    0.865332  -1.328673
    12  O   -0.233794   0.073096
    13  O   -0.209425   0.145845
    14  H   -0.184562   0.347934
    15  H   -0.287067   0.435127
    16  H    0.202493  -0.047871
    17  H    0.109197   0.040824
    18  H   -0.232239   0.388216
    19  H    0.054972   0.107728
    20  H    0.222742  -0.016230
    21  H    0.286334  -0.110798
    22  H    0.127589   0.057927
    23  H   -0.134808   0.282549
    24  H    0.063782   0.069842
    25  H   -0.003038   0.127985
    26  H   -0.062311   0.178124
    27  H   -0.103702   0.288908
    28  H   -0.061326   0.271589
    29  H    0.120682   0.067411
    30  H   -0.623715   0.778652
    31  H   -0.114756   0.248919
    32  H   -0.105489   0.345132
    33  H   -0.002807   0.239563
    34  H   -0.449728   0.737978
 Sum of Mulliken charges =  -1.00000   1.00000

 Dipole moment (field-independent basis, Debye):
    X=              0.5010    Y=              2.8455    Z=             -1.0068  Tot=              3.0596
 Quadrupole moment (field-independent basis, Debye-Ang):
   XX=           -138.3373   YY=           -134.1538   ZZ=           -124.8935
   XY=             -5.7440   XZ=             -5.8885   YZ=              1.3244

 Summary of Natural Population Analysis:

                                       Natural Population
                Natural  -----------------------------------------------
    Atom  No    Charge         Core      Valence    Rydberg      Total
 -----------------------------------------------------------------------
      C    1   -0.28876      0.99966     2.28389    0.00521     3.28876
      C    2   -0.19048      0.99963     2.18311    0.00774     3.19048
      C    3   -0.19160      0.99959     2.18170    0.01031     3.19160
      C    4   -0.07533      0.99948     2.05973    0.01612     3.07533
      C    5   -0.19720      0.99959     2.18572    0.01189     3.19720
      C    6   -0.19307      0.99964     2.18641    0.00702     3.19307
      C    7   -0.28293      0.99966     2.27905    0.00422     3.28293
      C    8   -0.00952      0.99957     1.99558    0.01437     3.00952
      C    9   -0.29360      0.99964     2.28762    0.00635     3.29360
      N   10   -0.42416      0.99977     2.91338    0.01101     3.92416
      C   11    0.41665      0.99962     1.55602    0.02771     2.58335
      O   12   -0.31109      0.99987     3.30511    0.00611     4.31109
      O   13   -0.34667      0.99988     3.33916    0.00763     4.34667
      H   14    0.09622      0.00000     0.40265    0.00113     0.40378
      H   15    0.09725      0.00000     0.40191    0.00084     0.40275
      H   16    0.10231      0.00000     0.39681    0.00088     0.39769
      H   17    0.09434      0.00000     0.40424    0.00142     0.40566
      H   18    0.09606      0.00000     0.40296    0.00098     0.40394
      H   19    0.09932      0.00000     0.39934    0.00134     0.40068
      H   20    0.11065      0.00000     0.38801    0.00134     0.38935
      H   21    0.11626      0.00000     0.38156    0.00219     0.38374
      H   22    0.10048      0.00000     0.39828    0.00124     0.39952
      H   23    0.09424      0.00000     0.40464    0.00113     0.40576
      H   24    0.09335      0.00000     0.40507    0.00158     0.40665
      H   25    0.09347      0.00000     0.40548    0.00105     0.40653
      H   26    0.09227      0.00000     0.40674    0.00099     0.40773
      H   27    0.10648      0.00000     0.39195    0.00157     0.39352
      H   28    0.09213      0.00000     0.40554    0.00233     0.40787
      H   29    0.10341      0.00000     0.39527    0.00132     0.39659
      H   30    0.10015      0.00000     0.39840    0.00145     0.39985
      H   31    0.10024      0.00000     0.39878    0.00098     0.39976
      H   32    0.17768      0.00000     0.31989    0.00243     0.32232
      H   33    0.17770      0.00000     0.31962    0.00268     0.32230
      H   34    0.24376      0.00000     0.24489    0.01136     0.25624
 =======================================================================
   * Total *    0.00000     12.99558    38.82851    0.17591    52.00000

 Normal termination of Gaussian 16 at Wed Dec  9 23:24:39 2020.
