 Gaussian 16, Revision A.03,

 -----------------------------------------------------------
 # opt freq B3LYP/6-31G(d) empiricaldispersion=gd3bj scf=xqc
 -----------------------------------------------------------

 ------------------------------
 CID_79795803_JID_8770_neutraal
 ------------------------------
 Symbolic Z-matrix:
 Charge =  0 Multiplicity = 1

 SCF Done:  E(RB3LYP) =  -774.623947316     A.U. after   15 cycles
 SCF Done:  E(RB3LYP) =  -774.628578004     A.U. after   12 cycles
 SCF Done:  E(RB3LYP) =  -774.629000280     A.U. after   11 cycles
 SCF Done:  E(RB3LYP) =  -774.629021062     A.U. after   10 cycles
 SCF Done:  E(RB3LYP) =  -774.629022736     A.U. after    8 cycles
 SCF Done:  E(RB3LYP) =  -774.629023339     A.U. after    8 cycles
 Optimization completed.
    -- Stationary point found.

 1\1\GINC-NODE219\FOpt\RB3LYP\6-31G(d)\C13H9N5\VSC10255\11-Dec-2020\0\\
 # opt freq B3LYP/6-31G(d) empiricaldispersion=gd3bj scf=xqc\\CID_79795
 803_JID_8770_neutraal\\0,1\C,1.0170253835,-0.1064608872,0.0357470283\C
 ,0.8268040336,0.5087785581,1.3989195497\C,0.5538354166,1.8669915816,1.
 5522571932\C,0.4263465226,2.3253965764,2.8606392899\C,0.5697360396,1.4
 293329163,3.9590961911\N,0.8266576637,0.1236431342,3.8164317241\C,0.94
 6042274,-0.2973031338,2.5604748538\N,0.4003683157,2.1031584355,5.15207
 27337\C,0.1640784812,3.3520498355,4.800847873\N,0.1665597407,3.5461430

 Normal termination of Gaussian 16 at Fri Dec 11 22:03:41 2020.

 --------------------------------------------------------------------
 #N Geom=AllCheck Guess=TCheck SCRF=Check GenChk RB3LYP/6-31G(d) Freq
 --------------------------------------------------------------------

 Structure from the checkpoint file:  "JID_8770.chk"
 ------------------------------
 CID_79795803_JID_8770_neutraal
 ------------------------------
 Charge =  0 Multiplicity = 1

 SCF Done:  E(RB3LYP) =  -774.629023339     A.U. after    1 cycles

  Exact polarizability: 381.151  -3.383 144.084  -0.535   0.010  61.680
 Approx polarizability: 544.711 -16.997 277.238  -0.571   0.210  97.446

                      1                      2                      3
                      A                      A                      A
 Frequencies --     28.1321                37.5088                68.0849
 Red. masses --      1.0340                 6.7557                 4.6793
 Frc consts  --      0.0005                 0.0056                 0.0128
 IR Inten    --      0.8001                 0.5187                 8.7879

                      4                      5                      6
                      A                      A                      A
 Frequencies --     70.3331                98.6575               158.6010
 Red. masses --      7.0358                 6.4549                 7.5202
 Frc consts  --      0.0205                 0.0370                 0.1115
 IR Inten    --      3.8558                 1.0563                 8.2110

                      7                      8                      9
                      A                      A                      A
 Frequencies --    169.6980               241.3415               246.3063
 Red. masses --      5.2440                 6.1998                 7.4038
 Frc consts  --      0.0890                 0.2128                 0.2646
 IR Inten    --      3.8860                 0.0310                 0.1516

                     10                     11                     12
                      A                      A                      A
 Frequencies --    280.7489               287.2037               364.2145
 Red. masses --      3.7423                 5.2763                 5.7155
 Frc consts  --      0.1738                 0.2564                 0.4467
 IR Inten    --      1.0991                 1.7050                 0.2194

                     13                     14                     15
                      A                      A                      A
 Frequencies --    390.7286               413.9598               447.1151
 Red. masses --      4.3964                 3.7358                 4.2992
 Frc consts  --      0.3955                 0.3772                 0.5064
 IR Inten    --      0.2099                 3.4350                 0.5238

                     16                     17                     18
                      A                      A                      A
 Frequencies --    484.4618               485.8244               543.5762
 Red. masses --      5.5303                 6.1734                 6.7342
 Frc consts  --      0.7647                 0.8585                 1.1724
 IR Inten    --      5.0596                 4.0242                 8.3658

                     19                     20                     21
                      A                      A                      A
 Frequencies --    568.5011               572.6221               580.8508
 Red. masses --      1.4743                 6.3827                 2.9759
 Frc consts  --      0.2807                 1.2331                 0.5916
 IR Inten    --     76.7317                 6.9937                31.6562

                     22                     23                     24
                      A                      A                      A
 Frequencies --    582.3343               619.1559               651.8577
 Red. masses --      5.6101                 2.9700                 7.7627
 Frc consts  --      1.1209                 0.6708                 1.9434
 IR Inten    --      2.8005                 0.3644                 0.3934

                     25                     26                     27
                      A                      A                      A
 Frequencies --    674.5298               715.8320               759.4700
 Red. masses --      8.0903                 4.9378                 7.5426
 Frc consts  --      2.1688                 1.4908                 2.5633
 IR Inten    --      3.7820                 2.0296                 0.9642

                     28                     29                     30
                      A                      A                      A
 Frequencies --    787.5569               799.0588               809.1784
 Red. masses --      5.6622                 8.2835                 7.2393
 Frc consts  --      2.0692                 3.1162                 2.7928
 IR Inten    --      0.0082                 5.4436                 0.7894

                     31                     32                     33
                      A                      A                      A
 Frequencies --    869.7424               882.2143               884.7725
 Red. masses --      5.4972                 1.4610                 1.3926
 Frc consts  --      2.4500                 0.6699                 0.6423
 IR Inten    --      1.3729                39.9331                 2.0721

                     34                     35                     36
                      A                      A                      A
 Frequencies --    938.9885               956.6886               974.8121
 Red. masses --      1.3590                 1.3977                 7.6481
 Frc consts  --      0.7060                 0.7537                 4.2820
 IR Inten    --      0.3518                 2.2862                 0.7029

                     37                     38                     39
                      A                      A                      A
 Frequencies --    997.4913              1008.5382              1033.0192
 Red. masses --      3.2609                 1.3249                 1.5623
 Frc consts  --      1.9117                 0.7940                 0.9823
 IR Inten    --     14.9293                 0.0031                10.3582

                     40                     41                     42
                      A                      A                      A
 Frequencies --   1044.7330              1075.4907              1120.1259
 Red. masses --      3.1784                 1.5035                 2.2689
 Frc consts  --      2.0439                 1.0246                 1.6773
 IR Inten    --      6.9647                14.2530                 3.2927

                     43                     44                     45
                      A                      A                      A
 Frequencies --   1160.4680              1191.4372              1238.4689
 Red. masses --      1.2707                 2.0965                 3.5666
 Frc consts  --      1.0082                 1.7534                 3.2231
 IR Inten    --      9.4265                 2.5295                34.4096

                     46                     47                     48
                      A                      A                      A
 Frequencies --   1244.5813              1271.5931              1308.3422
 Red. masses --      3.5564                 2.4991                 5.6302
 Frc consts  --      3.2457                 2.3808                 5.6783
 IR Inten    --      4.8336                99.7863                57.6778

                     49                     50                     51
                      A                      A                      A
 Frequencies --   1332.3563              1341.0173              1362.5284
 Red. masses --      1.7631                 6.4569                 2.4630
 Frc consts  --      1.8440                 6.8414                 2.6941
 IR Inten    --      0.6427                63.6583                 3.5226

                     52                     53                     54
                      A                      A                      A
 Frequencies --   1373.1053              1411.9482              1418.6192
 Red. masses --      2.3829                 2.8921                 3.7602
 Frc consts  --      2.6471                 3.3970                 4.4586
 IR Inten    --      6.2617                24.6127                 3.8051

                     55                     56                     57
                      A                      A                      A
 Frequencies --   1444.7612              1461.2749              1510.1982
 Red. masses --      1.2464                 6.0712                 2.5367
 Frc consts  --      1.5329                 7.6381                 3.4087
 IR Inten    --      3.6225                67.3500               102.2442

                     58                     59                     60
                      A                      A                      A
 Frequencies --   1515.6214              1518.8720              1551.6306
 Red. masses --      1.0553                 1.1602                 3.4525
 Frc consts  --      1.4283                 1.5769                 4.8974
 IR Inten    --      5.2496                 5.4300                 1.9298

                     61                     62                     63
                      A                      A                      A
 Frequencies --   1592.8590              1603.1985              1611.9783
 Red. masses --      5.5151                 5.7974                 7.1697
 Frc consts  --      8.2445                 8.7793                10.9767
 IR Inten    --      8.0531                15.5854                62.1302

                     64                     65                     66
                      A                      A                      A
 Frequencies --   1651.5728              1679.0271              2351.1226
 Red. masses --      5.8201                 7.3116                12.6768
 Frc consts  --      9.3535                12.1445                41.2867
 IR Inten    --    225.9996                 2.9370                57.4591

                     67                     68                     69
                      A                      A                      A
 Frequencies --   3044.9538              3102.5673              3129.2242
 Red. masses --      1.0400                 1.0964                 1.1027
 Frc consts  --      5.6813                 6.2183                 6.3620
 IR Inten    --     36.6497                18.9456                13.0087

                     70                     71                     72
                      A                      A                      A
 Frequencies --   3161.3650              3193.9302              3197.8288
 Red. masses --      1.0898                 1.0918                 1.0921
 Frc consts  --      6.4175                 6.5623                 6.5797
 IR Inten    --     43.0821                14.0974                13.1305

                     73                     74                     75
                      A                      A                      A
 Frequencies --   3223.1944              3245.4322              3642.7819
 Red. masses --      1.0911                 1.0949                 1.0803
 Frc consts  --      6.6785                 6.7946                 8.4458
 IR Inten    --      2.9170                 0.3587                68.5840

 - Thermochemistry -
 -------------------
 Temperature   298.150 Kelvin.  Pressure   1.00000 Atm.
 Atom     1 has atomic number  6 and mass  12.00000

 Molecular mass:   235.08580 amu.
 Principal axes and moments of inertia in atomic units:
                           1         2         3
     Eigenvalues --   861.01684********************
           X            0.99996   0.00902  -0.00012
           Y           -0.00902   0.99996  -0.00012
           Z            0.00012   0.00012   1.00000
 This molecule is an asymmetric top.
 Rotational symmetry number  1.
 Warning -- assumption of classical behavior for rotation
           may cause significant error
 Rotational temperatures (Kelvin)      0.10059     0.00786     0.00730
 Rotational constants (GHZ):           2.09606     0.16378     0.15205
 Zero-point vibrational energy     531213.2 (Joules/Mol)
                                  126.96301 (Kcal/Mol)
 Warning -- explicit consideration of  23 degrees of freedom as
           vibrations may cause significant error
 Vibrational temperatures:     40.48    53.97    97.96   101.19   141.95
          (Kelvin)            228.19   244.16   347.24   354.38   403.94
                              413.22   524.02   562.17   595.60   643.30
                              697.03   698.99   782.08   817.95   823.88
                              835.71   837.85   890.83   937.88   970.50
                             1029.92  1092.71  1133.12  1149.67  1164.23
                             1251.37  1269.31  1272.99  1351.00  1376.46
                             1402.54  1435.17  1451.06  1486.28  1503.14
                             1547.39  1611.61  1669.65  1714.21  1781.88
                             1790.67  1829.54  1882.41  1916.96  1929.42
                             1960.37  1975.59  2031.48  2041.08  2078.69
                             2102.45  2172.84  2180.64  2185.32  2232.45
                             2291.77  2306.65  2319.28  2376.24  2415.75
                             3382.74  4381.01  4463.90  4502.26  4548.50
                             4595.35  4600.96  4637.46  4669.45  5241.15

 Zero-point correction=                           0.202328 (Hartree/Particle)
 Thermal correction to Energy=                    0.216444
 Thermal correction to Enthalpy=                  0.217388
 Thermal correction to Gibbs Free Energy=         0.159502
 Sum of electronic and zero-point Energies=           -774.426695
 Sum of electronic and thermal Energies=              -774.412579
 Sum of electronic and thermal Enthalpies=            -774.411635
 Sum of electronic and thermal Free Energies=         -774.469522

                     E (Thermal)             CV                S
                      KCal/Mol        Cal/Mol-Kelvin    Cal/Mol-Kelvin
 Total                  135.821             54.067            121.832
 Electronic               0.000              0.000              0.000
 Translational            0.889              2.981             42.266
 Rotational               0.889              2.981             33.087
 Vibrational            134.043             48.106             46.479
 Vibration     1          0.593              1.984              5.957
 Vibration     2          0.594              1.982              5.387
 Vibration     3          0.598              1.969              4.208
 Vibration     4          0.598              1.968              4.144
 Vibration     5          0.604              1.950              3.481
 Vibration     6          0.621              1.893              2.566
 Vibration     7          0.625              1.880              2.439
 Vibration     8          0.658              1.777              1.793
 Vibration     9          0.661              1.769              1.757
 Vibration    10          0.680              1.709              1.529
 Vibration    11          0.684              1.697              1.490
 Vibration    12          0.738              1.546              1.104
 Vibration    13          0.758              1.490              0.997
 Vibration    14          0.778              1.440              0.913
 Vibration    15          0.806              1.367              0.805
 Vibration    16          0.841              1.285              0.698
 Vibration    17          0.842              1.281              0.695
 Vibration    18          0.899              1.154              0.558
 Vibration    19          0.925              1.099              0.507
 Vibration    20          0.929              1.090              0.499
 Vibration    21          0.938              1.073              0.484
 Vibration    22          0.939              1.070              0.481
 Vibration    23          0.979              0.991              0.418

                           ! Non-Optimized Parameters !

 1\1\GINC-NODE219\Freq\RB3LYP\6-31G(d)\C13H9N5\VSC10255\11-Dec-2020\0\\
 #N Geom=AllCheck Guess=TCheck SCRF=Check GenChk RB3LYP/6-31G(d) Freq\\
 CID_79795803_JID_8770_neutraal\\0,1\C,1.0170253835,-0.1064608872,0.035
 7470283\C,0.8268040336,0.5087785581,1.3989195497\C,0.5538354166,1.8669
 915816,1.5522571932\C,0.4263465226,2.3253965764,2.8606392899\C,0.56973
 60396,1.4293329163,3.9590961911\N,0.8266576637,0.1236431342,3.81643172
 41\C,0.946042274,-0.2973031338,2.5604748538\N,0.4003683157,2.103158435
 5,5.1520727337\C,0.1640784812,3.3520498355,4.800847873\N,0.1665597407,

 Normal termination of Gaussian 16 at Fri Dec 11 22:12:06 2020.

 ----------------------------------------------------------------------
 # B3LYP/6-311++G(d,p) empiricaldispersion=gd3bj scf=xqc pop=npa geom=c
 heck
 ----------------------------------------------------------------------

 --------------------------------------
 CID_79795803_JID_8770_Energie_neutraal
 --------------------------------------
 Structure from the checkpoint file:  "JID_8770.chk"
 Charge =  0 Multiplicity = 1

 SCF Done:  E(RB3LYP) =  -774.824221085     A.U. after   15 cycles
 Normal termination of Gaussian 16 at Fri Dec 11 22:15:52 2020.

 ----------------------------------------------------------------------
 # B3LYP/6-311++G(d,p) empiricaldispersion=gd3bj scf=xqc pop=npa geom=c
 heck
 ----------------------------------------------------------------------

 ------------------------------------
 CID_79795803_JID_8770_Energie_kation
 ------------------------------------
 Structure from the checkpoint file:  "JID_8770.chk"
 Charge =  1 Multiplicity = 2

 SCF Done:  E(UB3LYP) =  -774.524832007     A.U. after   23 cycles
 Normal termination of Gaussian 16 at Fri Dec 11 22:23:52 2020.
 Gaussian 16:  ES64L-G16RevA.03 25-Dec-2016

 -----------------------------------
 CID_79795803_JID_8770_Energie_anion
 -----------------------------------
 Structure from the checkpoint file:  "JID_8770.chk"
 Charge = -1 Multiplicity = 2

                         Standard orientation:
 ---------------------------------------------------------------------
 Center     Atomic      Atomic             Coordinates (Angstroms)
 Number     Number       Type             X           Y           Z
 ---------------------------------------------------------------------
      1          6           0       -5.835055   -1.005310    0.018225
      2          6           0       -4.452501   -0.404587   -0.006631
      3          6           0       -3.311523   -1.205170   -0.008257
      4          6           0       -2.090370   -0.536577   -0.003493
      5          6           0       -2.044496    0.887496   -0.000232
      6          7           0       -3.137311    1.660107   -0.003903
      7          6           0       -4.295059    1.005522   -0.007744
      8          7           0       -0.734925    1.324466    0.001216
      9          6           0       -0.013411    0.220685   -0.001521
     10          7           0       -0.773929   -0.930063   -0.005222
     11          6           0        1.442424    0.148009   -0.000281
     12          7           0        1.972998   -1.091492   -0.003536
     13          6           0        3.297504   -1.201818   -0.002617
     14          6           0        4.161363   -0.092581    0.001537
     15          6           0        3.596517    1.194563    0.004872
     16          6           0        2.217056    1.317151    0.003942
     17          6           0        5.577081   -0.284486    0.002291
     18          7           0        6.728836   -0.447386    0.002891
     19          1           0       -5.829675   -2.035997   -0.349966
     20          1           0       -6.530961   -0.428185   -0.599815
     21          1           0       -6.243253   -1.021092    1.037149
     22          1           0       -3.382563   -2.289524   -0.013694
     23          1           0       -5.190591    1.626002   -0.015329
     24          1           0       -0.375718   -1.858924   -0.008210
     25          1           0        3.707825   -2.208434   -0.005294
     26          1           0        4.238110    2.069324    0.008114
     27          1           0        1.719962    2.280015    0.006374
 ---------------------------------------------------------------------

 SCF Done:  E(UB3LYP) =  -774.874891230     A.U. after   22 cycles

 The electronic state is 2-A.
 Alpha  occ. eigenvalues --  -14.24515 -14.18926 -14.18809 -14.18299 -14.16852
 Alpha  occ. eigenvalues --  -10.11217 -10.10536 -10.10489 -10.09813 -10.08827
 Alpha  occ. eigenvalues --  -10.08535 -10.08522 -10.07974 -10.07864 -10.07775
 Alpha  occ. eigenvalues --  -10.07595 -10.06959 -10.05903  -0.90704  -0.83167
 Alpha  occ. eigenvalues --   -0.82047  -0.78395  -0.76255  -0.70600  -0.69625
 Alpha  occ. eigenvalues --   -0.67362  -0.64642  -0.59605  -0.56069  -0.52638
 Alpha  occ. eigenvalues --   -0.52268  -0.49166  -0.48591  -0.43938  -0.43058
 Alpha  occ. eigenvalues --   -0.40371  -0.39128  -0.36972  -0.36118  -0.34644
 Alpha  occ. eigenvalues --   -0.33194  -0.32879  -0.31797  -0.30733  -0.30295
 Alpha  occ. eigenvalues --   -0.29796  -0.28862  -0.27436  -0.26841  -0.25937
 Alpha  occ. eigenvalues --   -0.24612  -0.23945  -0.21787  -0.20902  -0.17752
 Alpha  occ. eigenvalues --   -0.17498  -0.16080  -0.15117  -0.14201  -0.14117
 Alpha  occ. eigenvalues --   -0.11054   0.00292
 Alpha virt. eigenvalues --    0.06291   0.07765   0.08215   0.08406   0.09005
 Alpha virt. eigenvalues --    0.09304   0.09617   0.10279   0.11585   0.11793
 Alpha virt. eigenvalues --    0.12566   0.13096   0.13985   0.14077   0.14285

  Beta  occ. eigenvalues --  -14.24429 -14.18761 -14.18636 -14.18062 -14.16656
  Beta  occ. eigenvalues --  -10.11130 -10.10571 -10.10525 -10.09852 -10.08824
  Beta  occ. eigenvalues --  -10.08570 -10.08528 -10.07783 -10.07698 -10.07628
  Beta  occ. eigenvalues --  -10.07304 -10.06807 -10.05913  -0.90522  -0.82790
  Beta  occ. eigenvalues --   -0.81777  -0.78041  -0.75960  -0.70389  -0.69095
  Beta  occ. eigenvalues --   -0.66988  -0.64416  -0.59413  -0.55620  -0.52413
  Beta  occ. eigenvalues --   -0.52140  -0.49051  -0.48336  -0.43795  -0.42856
  Beta  occ. eigenvalues --   -0.40244  -0.38954  -0.36828  -0.35947  -0.34274
  Beta  occ. eigenvalues --   -0.32915  -0.32785  -0.31711  -0.30670  -0.30225
  Beta  occ. eigenvalues --   -0.28762  -0.28705  -0.27363  -0.26591  -0.25149
  Beta  occ. eigenvalues --   -0.24255  -0.22982  -0.21651  -0.20174  -0.17239
  Beta  occ. eigenvalues --   -0.16549  -0.14880  -0.14759  -0.13946  -0.13363
  Beta  occ. eigenvalues --   -0.10187
  Beta virt. eigenvalues --    0.05347   0.06274   0.08196   0.08639   0.08944
  Beta virt. eigenvalues --    0.09065   0.09398   0.09611   0.10266   0.11701
  Beta virt. eigenvalues --    0.12039   0.12564   0.13098   0.13992   0.14367

 Mulliken charges and spin densities:
               1          2
     1  C   -0.564370  -0.002866
     2  C    0.478578   0.048580
     3  C   -0.390728   0.065355
     4  C    0.438003  -0.018416
     5  C   -0.044545  -0.013541
     6  N   -0.074198   0.083302
     7  C   -0.522625  -0.007845
     8  N   -0.122144   0.095692
     9  C   -0.230351   0.045034
    10  N   -0.263691   0.037508
    11  C    0.017877   0.195749
    12  N   -0.044313   0.074370
    13  C   -0.317626  -0.013661
    14  C    2.102267   0.214869
    15  C   -0.389430   0.144941
    16  C   -0.395610   0.012928
    17  C   -1.893255  -0.079464
    18  N   -0.287766   0.125094
    19  H    0.125579   0.001663
    20  H    0.130317   0.000484
    21  H    0.141829   0.005500
    22  H    0.125378  -0.005883
    23  H    0.158561  -0.001072
    24  H    0.304864  -0.001758
    25  H    0.167861   0.001979
    26  H    0.167187  -0.009104
    27  H    0.182351   0.000562
 Sum of Mulliken charges =  -1.00000   1.00000

 Dipole moment (field-independent basis, Debye):
    X=             -8.5193    Y=             -3.4728    Z=              0.0126  Tot=              9.1999
 Quadrupole moment (field-independent basis, Debye-Ang):
   XX=           -210.7224   YY=           -114.4733   ZZ=           -111.3697
   XY=             16.3319   XZ=             -0.0576   YZ=              0.0552

 Summary of Natural Population Analysis:

                                       Natural Population
                Natural  -----------------------------------------------
    Atom  No    Charge         Core      Valence    Rydberg      Total
 -----------------------------------------------------------------------
      C    1   -0.28516      0.99958     2.28065    0.00493     3.28516
      C    2   -0.03716      0.99954     2.03020    0.00742     3.03716
      C    3   -0.09686      0.99949     2.08970    0.00767     3.09686
      C    4    0.04695      0.99947     1.94163    0.01194     2.95305
      C    5    0.14964      0.99950     1.83121    0.01965     2.85036
      N    6   -0.20488      0.99967     2.69101    0.01420     3.70488
      C    7    0.01289      0.99956     1.97380    0.01376     2.98711
      N    8   -0.22065      0.99967     2.71165    0.00933     3.72065
      C    9    0.20361      0.99962     1.77673    0.02003     2.79639
      N   10   -0.26792      0.99962     2.75858    0.00972     3.76792
      C   11    0.12436      0.99944     1.85877    0.01743     2.87564
      N   12   -0.20883      0.99969     2.70296    0.00618     3.70883
      C   13    0.01340      0.99965     1.96285    0.02410     2.98660
      C   14   -0.03624      0.99945     2.01577    0.02102     3.03624
      C   15   -0.07639      0.99966     2.05317    0.02357     3.07639
      C   16   -0.06654      0.99946     2.06226    0.00482     3.06654
      C   17    0.18784      0.99974     1.79766    0.01476     2.81216
      N   18   -0.18398      0.99981     2.66789    0.01629     3.68398
      H   19    0.09649      0.00000     0.40225    0.00126     0.40351
      H   20    0.09865      0.00000     0.40002    0.00133     0.40135
      H   21    0.09874      0.00000     0.39989    0.00137     0.40126
      H   22    0.09427      0.00000     0.40411    0.00162     0.40573
      H   23    0.08025      0.00000     0.41834    0.00141     0.41975
      H   24    0.20970      0.00000     0.28869    0.00161     0.29030
      H   25    0.08599      0.00000     0.41206    0.00195     0.41401
      H   26    0.09677      0.00000     0.40148    0.00175     0.40323
      H   27    0.10922      0.00000     0.38961    0.00117     0.39078
 =======================================================================
   * Total *    0.02415     17.99264    42.72291    0.26029    60.97585

 Normal termination of Gaussian 16 at Fri Dec 11 22:31:31 2020.
