 Gaussian 16, Revision A.03,

 -----------------------------------------------------------
 # opt freq B3LYP/6-31G(d) empiricaldispersion=gd3bj scf=xqc
 -----------------------------------------------------------

 -------------------------------
 CID_101950348_JID_5336_neutraal
 -------------------------------
 Symbolic Z-matrix:
 Charge =  0 Multiplicity = 1

 SCF Done:  E(RB3LYP) =  -621.989149947     A.U. after   15 cycles
 SCF Done:  E(RB3LYP) =  -621.991222315     A.U. after   12 cycles
 SCF Done:  E(RB3LYP) =  -621.990938815     A.U. after   13 cycles
 SCF Done:  E(RB3LYP) =  -621.991624649     A.U. after   12 cycles
 SCF Done:  E(RB3LYP) =  -621.991885956     A.U. after   12 cycles
 SCF Done:  E(RB3LYP) =  -621.991959139     A.U. after   12 cycles
 SCF Done:  E(RB3LYP) =  -621.992010102     A.U. after   13 cycles
 SCF Done:  E(RB3LYP) =  -621.992084675     A.U. after   12 cycles
 SCF Done:  E(RB3LYP) =  -621.992077942     A.U. after   13 cycles
 SCF Done:  E(RB3LYP) =  -621.992181128     A.U. after   12 cycles
 SCF Done:  E(RB3LYP) =  -621.993738509     A.U. after   10 cycles
 SCF Done:  E(RB3LYP) =  -621.993760591     A.U. after   10 cycles
 SCF Done:  E(RB3LYP) =  -621.993785449     A.U. after    9 cycles
 SCF Done:  E(RB3LYP) =  -621.993806740     A.U. after   10 cycles
 SCF Done:  E(RB3LYP) =  -621.993808034     A.U. after    8 cycles
 SCF Done:  E(RB3LYP) =  -621.993808142     A.U. after    7 cycles
 Optimization completed.
    -- Stationary point found.
 Normal termination of Gaussian 16 at Thu Dec 10 16:06:41 2020.

 --------------------------------------------------------------------
 #N Geom=AllCheck Guess=TCheck SCRF=Check GenChk RB3LYP/6-31G(d) Freq
 --------------------------------------------------------------------

 Structure from the checkpoint file:  "JID_5336.chk"
 -------------------------------
 CID_101950348_JID_5336_neutraal
 -------------------------------
 Charge =  0 Multiplicity = 1

 SCF Done:  E(RB3LYP) =  -621.993808141     A.U. after    1 cycles

  Exact polarizability: 235.571  21.255 142.233  20.778  -9.108 125.079
 Approx polarizability: 342.065  41.583 202.352  56.081 -12.420 196.505

                      1                      2                      3
                      A                      A                      A
 Frequencies --     18.5895                41.5090                45.7192
 Red. masses --      4.6287                 3.0088                 2.9954
 Frc consts  --      0.0009                 0.0031                 0.0037
 IR Inten    --      0.8241                 1.8282                 1.1912

                      4                      5                      6
                      A                      A                      A
 Frequencies --     70.6775                83.7284                99.9213
 Red. masses --      3.3183                 4.3604                 3.0399
 Frc consts  --      0.0098                 0.0180                 0.0179
 IR Inten    --      0.0467                 2.0976                 0.9056

                      7                      8                      9
                      A                      A                      A
 Frequencies --    110.0051               134.9140               144.9010
 Red. masses --      2.9235                 1.0419                 1.0674
 Frc consts  --      0.0208                 0.0112                 0.0132
 IR Inten    --      0.1784                 0.0879                 0.0385

                     10                     11                     12
                      A                      A                      A
 Frequencies --    174.9524               181.1715               197.2045
 Red. masses --      3.1265                 1.1429                 2.5423
 Frc consts  --      0.0564                 0.0221                 0.0583
 IR Inten    --      1.4656                 1.4227                 1.3112

                     13                     14                     15
                      A                      A                      A
 Frequencies --    199.8355               229.6281               255.2949
 Red. masses --      1.1997                 2.5767                 1.7803
 Frc consts  --      0.0282                 0.0801                 0.0684
 IR Inten    --      0.7006                 0.2370                 0.1479

                     16                     17                     18
                      A                      A                      A
 Frequencies --    274.0122               303.6236               315.4689
 Red. masses --      1.4854                 3.1465                 2.6673
 Frc consts  --      0.0657                 0.1709                 0.1564
 IR Inten    --      1.6775                 0.7949                 1.8938

                     19                     20                     21
                      A                      A                      A
 Frequencies --    322.8523               360.3970               387.3029
 Red. masses --      2.6811                 2.2211                 2.4985
 Frc consts  --      0.1647                 0.1700                 0.2208
 IR Inten    --      1.4149                 0.8956                 0.3524

                     22                     23                     24
                      A                      A                      A
 Frequencies --    410.1311               451.3895               483.7576
 Red. masses --      2.7585                 2.5458                 2.4910
 Frc consts  --      0.2734                 0.3056                 0.3435
 IR Inten    --      0.5581                 2.4498                 1.7603

                     25                     26                     27
                      A                      A                      A
 Frequencies --    513.9273               537.7158               554.9415
 Red. masses --      3.0114                 2.9448                 2.9370
 Frc consts  --      0.4686                 0.5017                 0.5329
 IR Inten    --      3.1953                 8.1854                11.2281

                     28                     29                     30
                      A                      A                      A
 Frequencies --    582.7012               590.6417               652.2483
 Red. masses --      2.4349                 3.8285                 2.2394
 Frc consts  --      0.4871                 0.7869                 0.5613
 IR Inten    --      2.2139                15.8951                 3.7479

                     31                     32                     33
                      A                      A                      A
 Frequencies --    755.7062               796.3196               833.3071
 Red. masses --      2.9401                 2.7968                 3.2110
 Frc consts  --      0.9893                 1.0449                 1.3137
 IR Inten    --      0.8823                 0.3648                 2.3840

                     34                     35                     36
                      A                      A                      A
 Frequencies --    859.1658               869.7956               903.9109
 Red. masses --      1.6108                 1.6633                 2.0814
 Frc consts  --      0.7006                 0.7414                 1.0020
 IR Inten    --      3.2680                 3.8129                19.2339

                     37                     38                     39
                      A                      A                      A
 Frequencies --    925.7183               938.7831               976.5958
 Red. masses --      1.6803                 1.7730                 1.3861
 Frc consts  --      0.8484                 0.9206                 0.7789
 IR Inten    --      7.8663                 2.2559                 0.3628

                     40                     41                     42
                      A                      A                      A
 Frequencies --    986.6113              1012.1273              1018.7532
 Red. masses --      1.6385                 1.6204                 1.5506
 Frc consts  --      0.9397                 0.9780                 0.9482
 IR Inten    --      2.5855                10.8117                35.8995

                     43                     44                     45
                      A                      A                      A
 Frequencies --   1019.0266              1030.1426              1052.0006
 Red. masses --      1.2499                 1.2476                 1.6775
 Frc consts  --      0.7647                 0.7800                 1.0938
 IR Inten    --     25.8215                 3.8697                 7.7325

                     46                     47                     48
                      A                      A                      A
 Frequencies --   1055.5477              1078.5137              1105.6515
 Red. masses --      1.7441                 1.5525                 1.6845
 Frc consts  --      1.1450                 1.0639                 1.2133
 IR Inten    --      2.2898                 3.5575                 5.0558

                     49                     50                     51
                      A                      A                      A
 Frequencies --   1119.4257              1121.8529              1152.1095
 Red. masses --      1.6685                 1.9807                 1.9849
 Frc consts  --      1.2319                 1.4687                 1.5523
 IR Inten    --      1.6818                 3.5491                10.3618

                     52                     53                     54
                      A                      A                      A
 Frequencies --   1184.7449              1220.4148              1235.2609
 Red. masses --      2.1923                 2.1395                 1.8052
 Frc consts  --      1.8130                 1.8775                 1.6229
 IR Inten    --      2.4593                17.5907                 3.5104

                     55                     56                     57
                      A                      A                      A
 Frequencies --   1273.6493              1284.6200              1298.2051
 Red. masses --      1.4001                 2.5641                 1.4063
 Frc consts  --      1.3382                 2.4931                 1.3965
 IR Inten    --      5.2410               281.8528                 6.1245

                     58                     59                     60
                      A                      A                      A
 Frequencies --   1302.7077              1346.2106              1373.9437
 Red. masses --      1.5507                 1.4187                 1.3693
 Frc consts  --      1.5505                 1.5148                 1.5229
 IR Inten    --     49.1973                 2.2865                10.8429

                     61                     62                     63
                      A                      A                      A
 Frequencies --   1379.8254              1409.7965              1410.9206
 Red. masses --      1.6195                 1.3620                 1.3210
 Frc consts  --      1.8167                 1.5949                 1.5494
 IR Inten    --     22.8248                45.6032                 1.0976

                     64                     65                     66
                      A                      A                      A
 Frequencies --   1420.6616              1440.9564              1442.0729
 Red. masses --      1.2860                 1.3604                 1.2466
 Frc consts  --      1.5293                 1.6643                 1.5274
 IR Inten    --      2.3355                 3.8501                 6.0181

                     67                     68                     69
                      A                      A                      A
 Frequencies --   1448.6752              1451.0958              1500.4262
 Red. masses --      1.4030                 1.2549                 1.0486
 Frc consts  --      1.7348                 1.5568                 1.3909
 IR Inten    --      9.1038                 1.2558                 0.8232

                     70                     71                     72
                      A                      A                      A
 Frequencies --   1502.0161              1506.0903              1507.5088
 Red. masses --      1.0566                 1.0577                 1.0675
 Frc consts  --      1.4044                 1.4136                 1.4294
 IR Inten    --      5.4335                 8.2406                 0.7627

                     73                     74                     75
                      A                      A                      A
 Frequencies --   1509.8498              1518.3135              1521.9966
 Red. masses --      1.0486                 1.0470                 1.0696
 Frc consts  --      1.4084                 1.4221                 1.4599
 IR Inten    --      7.8838                21.8268                 6.3715

                     76                     77                     78
                      A                      A                      A
 Frequencies --   1524.2644              1530.3324              1535.9502
 Red. masses --      1.0670                 1.0734                 1.0603
 Frc consts  --      1.4606                 1.4810                 1.4738
 IR Inten    --      7.8237                 1.3399                 8.8834

                     79                     80                     81
                      A                      A                      A
 Frequencies --   1541.2529              1666.5693              1701.2822
 Red. masses --      1.0630                 6.2340                 4.9385
 Frc consts  --      1.4877                10.2015                 8.4216
 IR Inten    --      2.9648                15.7707               250.5691

                     82                     83                     84
                      A                      A                      A
 Frequencies --   1751.8652              1760.5488              3025.7634
 Red. masses --      6.2258                 9.7761                 1.0391
 Frc consts  --     11.2577                17.8530                 5.6050
 IR Inten    --      5.3605               251.7522                27.5067

                     85                     86                     87
                      A                      A                      A
 Frequencies --   3028.6823              3034.4345              3040.9893
 Red. masses --      1.0710                 1.0434                 1.0799
 Frc consts  --      5.7884                 5.6606                 5.8836
 IR Inten    --     22.2218                43.8635                39.0856

                     88                     89                     90
                      A                      A                      A
 Frequencies --   3050.5420              3053.5154              3054.9836
 Red. masses --      1.0416                 1.0380                 1.0385
 Frc consts  --      5.7110                 5.7023                 5.7104
 IR Inten    --      7.7661                 4.3835                41.2951

                     91                     92                     93
                      A                      A                      A
 Frequencies --   3070.4721              3075.0139              3099.6664
 Red. masses --      1.0997                 1.0991                 1.0936
 Frc consts  --      6.1083                 6.1234                 6.1904
 IR Inten    --      6.4621                44.1350                13.6171

                     94                     95                     96
                      A                      A                      A
 Frequencies --   3106.9936              3113.1050              3117.3574
 Red. masses --      1.0934                 1.1002                 1.1026
 Frc consts  --      6.2190                 6.2822                 6.3129
 IR Inten    --      6.4612                12.9336                30.1744

                     97                     98                     99
                      A                      A                      A
 Frequencies --   3123.1288              3128.3024              3142.5735
 Red. masses --      1.0995                 1.1011                 1.0877
 Frc consts  --      6.3189                 6.3489                 6.3291
 IR Inten    --     14.3190                31.5016                15.1088

                    100                    101                    102
                      A                      A                      A
 Frequencies --   3144.8190              3153.3542              3159.8032
 Red. masses --      1.0884                 1.0990                 1.0944
 Frc consts  --      6.3420                 6.4386                 6.4382
 IR Inten    --     36.9471                10.4433                21.5603

                    103                    104                    105
                      A                      A                      A
 Frequencies --   3169.0755              3180.4175              3197.0025
 Red. masses --      1.1011                 1.0909                 1.0856
 Frc consts  --      6.5154                 6.5016                 6.5372
 IR Inten    --     14.9585                 5.2531                19.6873

 - Thermochemistry -
 -------------------
 Temperature   298.150 Kelvin.  Pressure   1.00000 Atm.
 Atom     1 has atomic number  6 and mass  12.00000

 Molecular mass:   206.16707 amu.
 Principal axes and moments of inertia in atomic units:
                           1         2         3
     Eigenvalues --  2050.185847155.481948113.77029
           X            0.99998   0.00171  -0.00629
           Y           -0.00181   0.99987  -0.01609
           Z            0.00627   0.01610   0.99985
 This molecule is an asymmetric top.
 Rotational symmetry number  1.
 Warning -- assumption of classical behavior for rotation
           may cause significant error
 Rotational temperatures (Kelvin)      0.04225     0.01210     0.01067
 Rotational constants (GHZ):           0.88028     0.25222     0.22243
 Zero-point vibrational energy     861982.7 (Joules/Mol)
                                  206.01881 (Kcal/Mol)
 Warning -- explicit consideration of  29 degrees of freedom as
           vibrations may cause significant error
 Vibrational temperatures:     26.75    59.72    65.78   101.69   120.47
          (Kelvin)            143.76   158.27   194.11   208.48   251.72
                              260.67   283.73   287.52   330.38   367.31
                              394.24   436.85   453.89   464.51   518.53
                              557.24   590.09   649.45   696.02   739.43
                              773.65   798.44   838.38   849.80   938.44
                             1087.29  1145.73  1198.94  1236.15  1251.44
                             1300.53  1331.90  1350.70  1405.10  1419.51
                             1456.23  1465.76  1466.15  1482.15  1513.59
                             1518.70  1551.74  1590.79  1610.60  1614.10
                             1657.63  1704.58  1755.90  1777.26  1832.50
                             1848.28  1867.83  1874.31  1936.90  1976.80
                             1985.26  2028.38  2030.00  2044.02  2073.21
                             2074.82  2084.32  2087.80  2158.78  2161.07
                             2166.93  2168.97  2172.34  2184.51  2189.81
                             2193.08  2201.81  2209.89  2217.52  2397.82
                             2447.77  2520.54  2533.04  4353.40  4357.60
                             4365.87  4375.31  4389.05  4393.33  4395.44
                             4417.72  4424.26  4459.73  4470.27  4479.06
                             4485.18  4493.49  4500.93  4521.46  4524.69
                             4536.97  4546.25  4559.59  4575.91  4599.77

 Zero-point correction=                           0.328312 (Hartree/Particle)
 Thermal correction to Energy=                    0.346718
 Thermal correction to Enthalpy=                  0.347662
 Thermal correction to Gibbs Free Energy=         0.280724
 Sum of electronic and zero-point Energies=           -621.665496
 Sum of electronic and thermal Energies=              -621.647090
 Sum of electronic and thermal Enthalpies=            -621.646146
 Sum of electronic and thermal Free Energies=         -621.713084

                     E (Thermal)             CV                S
                      KCal/Mol        Cal/Mol-Kelvin    Cal/Mol-Kelvin
 Total                  217.569             66.719            140.883
 Electronic               0.000              0.000              0.000
 Translational            0.889              2.981             41.875
 Rotational               0.889              2.981             33.142
 Vibrational            215.791             60.757             65.866
 Vibration     1          0.593              1.986              6.779
 Vibration     2          0.594              1.981              5.186
 Vibration     3          0.595              1.979              4.994
 Vibration     4          0.598              1.968              4.134
 Vibration     5          0.601              1.960              3.802
 Vibration     6          0.604              1.949              3.456
 Vibration     7          0.606              1.941              3.269
 Vibration     8          0.613              1.918              2.875
 Vibration     9          0.616              1.908              2.738
 Vibration    10          0.627              1.873              2.382
 Vibration    11          0.630              1.865              2.316
 Vibration    12          0.637              1.844              2.159
 Vibration    13          0.638              1.840              2.135
 Vibration    14          0.652              1.796              1.882
 Vibration    15          0.666              1.754              1.694
 Vibration    16          0.676              1.721              1.571
 Vibration    17          0.695              1.667              1.397
 Vibration    18          0.703              1.644              1.333
 Vibration    19          0.708              1.630              1.296
 Vibration    20          0.735              1.554              1.120
 Vibration    21          0.756              1.497              1.011
 Vibration    22          0.774              1.448              0.926
 Vibration    23          0.810              1.358              0.792
 Vibration    24          0.840              1.286              0.700
 Vibration    25          0.869              1.219              0.624
 Vibration    26          0.893              1.167              0.570
 Vibration    27          0.910              1.129              0.534
 Vibration    28          0.940              1.069              0.480
 Vibration    29          0.948              1.052              0.466

 Optimization completed.
    -- Stationary point found.
 Normal termination of Gaussian 16 at Thu Dec 10 16:18:21 2020.

 ----------------------------------------------------------------------
 # B3LYP/6-311++G(d,p) empiricaldispersion=gd3bj scf=xqc pop=npa geom=c
 heck
 ----------------------------------------------------------------------

 ---------------------------------------
 CID_101950348_JID_5336_Energie_neutraal
 ---------------------------------------
 Structure from the checkpoint file:  "JID_5336.chk"
 Charge =  0 Multiplicity = 1

 SCF Done:  E(RB3LYP) =  -622.169081258     A.U. after   15 cycles
 Normal termination of Gaussian 16 at Thu Dec 10 16:24:23 2020.

 ----------------------------------------------------------------------
 # B3LYP/6-311++G(d,p) empiricaldispersion=gd3bj scf=xqc pop=npa geom=c
 heck
 ----------------------------------------------------------------------

 -------------------------------------
 CID_101950348_JID_5336_Energie_kation
 -------------------------------------
 Structure from the checkpoint file:  "JID_5336.chk"
 Charge =  1 Multiplicity = 2

 SCF Done:  E(UB3LYP) =  -621.881109540     A.U. after   29 cycles
 Normal termination of Gaussian 16 at Thu Dec 10 16:44:30 2020.
 Gaussian 16:  ES64L-G16RevA.03 25-Dec-2016

 ----------------------------------------------------------------------
 # B3LYP/6-311++G(d,p) empiricaldispersion=gd3bj scf=xqc pop=npa geom=c
 heck
 ----------------------------------------------------------------------

 ------------------------------------
 CID_101950348_JID_5336_Energie_anion
 ------------------------------------
 Structure from the checkpoint file:  "JID_5336.chk"
 Charge = -1 Multiplicity = 2

                         Standard orientation:
 ---------------------------------------------------------------------
 Center     Atomic      Atomic             Coordinates (Angstroms)
 Number     Number       Type             X           Y           Z
 ---------------------------------------------------------------------
      1          6           0        2.535735    2.577483    0.572116
      2          6           0        1.614860    1.795079   -0.374137
      3          6           0        2.416040    0.768848   -1.236737
      4          6           0        3.165051   -0.286959   -0.470045
      5          6           0        2.793045   -1.558359   -0.255058
      6          6           0        3.672383   -2.499924    0.529412
      7          6           0        1.498752   -2.163113   -0.735471
      8          6           0        0.441012    1.126195    0.324413
      9          6           0       -0.740695    1.048295   -0.332015
     10          6           0       -1.951962    0.404688    0.119704
     11          6           0       -3.090370    0.353664   -0.608176
     12          6           0       -4.341039   -0.300092   -0.185839
     13          8           0       -5.319790   -0.292461   -0.923293
     14          6           0       -4.398621   -0.983077    1.174538
     15          6           0        0.677847    0.557487    1.696183
     16          1           0        3.031907    1.922341    1.294731
     17          1           0        1.977634    3.336413    1.131282
     18          1           0        3.316361    3.089322   -0.001657
     19          1           0        1.193644    2.510454   -1.092374
     20          1           0        1.720111    0.314259   -1.948092
     21          1           0        3.137662    1.346255   -1.831407
     22          1           0        4.118451    0.031354   -0.047889
     23          1           0        3.147949   -2.882660    1.416162
     24          1           0        3.944241   -3.378075   -0.072349
     25          1           0        4.595832   -2.015835    0.861753
     26          1           0        0.878018   -1.465221   -1.299368
     27          1           0        1.689891   -3.044918   -1.361876
     28          1           0        0.904409   -2.512960    0.119822
     29          1           0       -0.800868    1.507794   -1.319099
     30          1           0       -1.940006   -0.065779    1.099222
     31          1           0       -3.137112    0.815767   -1.592398
     32          1           0       -3.652056   -1.782741    1.246169
     33          1           0       -4.195231   -0.270477    1.982468
     34          1           0       -5.394949   -1.406828    1.309861
     35          1           0        1.563818   -0.085941    1.691190
     36          1           0        0.873292    1.360446    2.418272
     37          1           0       -0.166897   -0.024562    2.068597
 ---------------------------------------------------------------------

 SCF Done:  E(UB3LYP) =  -622.185207110     A.U. after   30 cycles

 The electronic state is 2-A.
 Alpha  occ. eigenvalues --  -18.91378 -10.07988 -10.07941 -10.06421 -10.06412
 Alpha  occ. eigenvalues --  -10.06308 -10.06232 -10.06205 -10.05731 -10.03668
 Alpha  occ. eigenvalues --  -10.02385 -10.01830 -10.01407 -10.00376  -9.98924
 Alpha  occ. eigenvalues --   -0.85327  -0.72570  -0.69821  -0.65207  -0.62266
 Alpha  occ. eigenvalues --   -0.60760  -0.59773  -0.58107  -0.56026  -0.53794
 Alpha  occ. eigenvalues --   -0.49244  -0.43842  -0.41557  -0.38856  -0.37622
 Alpha  occ. eigenvalues --   -0.36777  -0.34953  -0.34193  -0.33311  -0.32936
 Alpha  occ. eigenvalues --   -0.31286  -0.30109  -0.29408  -0.29113  -0.28827
 Alpha  occ. eigenvalues --   -0.28309  -0.27961  -0.27407  -0.26447  -0.26103
 Alpha  occ. eigenvalues --   -0.24692  -0.24154  -0.23447  -0.22418  -0.21203
 Alpha  occ. eigenvalues --   -0.20916  -0.20339  -0.18903  -0.16476  -0.13944
 Alpha  occ. eigenvalues --   -0.07823  -0.07677   0.04197
 Alpha virt. eigenvalues --    0.06301   0.07484   0.08489   0.08786   0.09514
 Alpha virt. eigenvalues --    0.09894   0.10578   0.10831   0.11182   0.12103
 Alpha virt. eigenvalues --    0.12421   0.12874   0.13150   0.13234   0.13646

  Beta  occ. eigenvalues --  -18.90861 -10.07970 -10.07937 -10.06411 -10.06308
  Beta  occ. eigenvalues --  -10.06244 -10.06226 -10.06182 -10.05716 -10.03700
  Beta  occ. eigenvalues --  -10.02406 -10.01491 -10.01339 -10.00073  -9.98744
  Beta  occ. eigenvalues --   -0.84423  -0.72478  -0.69572  -0.64812  -0.61948
  Beta  occ. eigenvalues --   -0.60546  -0.59751  -0.57911  -0.55936  -0.53660
  Beta  occ. eigenvalues --   -0.48865  -0.43278  -0.41452  -0.38577  -0.37425
  Beta  occ. eigenvalues --   -0.36700  -0.34745  -0.34039  -0.33220  -0.32813
  Beta  occ. eigenvalues --   -0.31069  -0.29922  -0.29379  -0.28940  -0.28362
  Beta  occ. eigenvalues --   -0.28207  -0.27865  -0.27324  -0.26404  -0.25929
  Beta  occ. eigenvalues --   -0.24605  -0.24019  -0.23179  -0.22264  -0.21050
  Beta  occ. eigenvalues --   -0.20763  -0.18692  -0.18372  -0.15069  -0.13554
  Beta  occ. eigenvalues --   -0.07192  -0.05658
  Beta virt. eigenvalues --    0.06235   0.07401   0.08348   0.08722   0.09469
  Beta virt. eigenvalues --    0.09825   0.10141   0.10579   0.10985   0.11584
  Beta virt. eigenvalues --    0.12146   0.12383   0.12809   0.13110   0.13220

 Mulliken charges and spin densities:
               1          2
     1  C   -0.720069   0.008882
     2  C   -0.158268  -0.045366
     3  C   -0.150789  -0.011671
     4  C   -0.208205  -0.009732
     5  C    0.478522  -0.028233
     6  C   -0.567304  -0.042101
     7  C   -0.702333   0.031102
     8  C    1.096913   0.297526
     9  C   -0.146787  -0.042749
    10  C   -0.489248   0.284228
    11  C    0.132130   0.047589
    12  C   -0.319327   0.191779
    13  O   -0.408021   0.172081
    14  C   -0.411624  -0.012654
    15  C   -1.051860  -0.008844
    16  H    0.166430   0.000449
    17  H    0.126949   0.001380
    18  H    0.121427  -0.000254
    19  H    0.166923   0.015231
    20  H    0.149080  -0.001863
    21  H    0.072719   0.047796
    22  H    0.150961  -0.000365
    23  H    0.099196   0.038898
    24  H    0.119596   0.000646
    25  H    0.126316   0.008754
    26  H    0.116018   0.007377
    27  H    0.137643  -0.001360
    28  H    0.128313   0.007405
    29  H    0.104622   0.002630
    30  H   -0.061071  -0.018123
    31  H    0.138995  -0.013058
    32  H    0.089827   0.024925
    33  H    0.115376   0.010170
    34  H    0.144868  -0.000810
    35  H    0.159845   0.014057
    36  H    0.124358   0.015770
    37  H    0.127881   0.008508
 Sum of Mulliken charges =  -1.00000   1.00000

 Dipole moment (field-independent basis, Debye):
    X=             12.0776    Y=             -0.6989    Z=              1.9938  Tot=             12.2610
 Quadrupole moment (field-independent basis, Debye-Ang):
   XX=           -185.6701   YY=           -107.8105   ZZ=           -107.3605
   XY=             -2.0409   XZ=            -12.1338   YZ=             -1.6034

 Summary of Natural Population Analysis:

                                       Natural Population
                Natural  -----------------------------------------------
    Atom  No    Charge         Core      Valence    Rydberg      Total
 -----------------------------------------------------------------------
      C    1   -0.28373      0.99966     2.27940    0.00467     3.28373
      C    2   -0.11500      0.99956     2.10492    0.01051     3.11500
      C    3   -0.19412      0.99960     2.18519    0.00933     3.19412
      C    4   -0.09883      0.99946     2.08928    0.01010     3.09883
      C    5   -0.00940      0.99950     2.00109    0.00881     3.00940
      C    6   -0.29238      0.99963     2.28836    0.00440     3.29238
      C    7   -0.30143      0.99962     2.29694    0.00487     3.30143
      C    8    0.08132      0.99949     1.90682    0.01237     2.91868
      C    9   -0.13666      0.99947     2.12873    0.00846     3.13666
      C   10   -0.03870      0.99953     2.03104    0.00813     3.03870
      C   11   -0.10985      0.99951     2.10038    0.00996     3.10985
      C   12    0.27224      0.99966     1.70766    0.02044     2.72776
      O   13   -0.26257      0.99988     3.25492    0.00777     4.26257
      C   14   -0.33202      0.99964     2.32814    0.00424     3.33202
      C   15   -0.30519      0.99963     2.30076    0.00479     3.30519
      H   16    0.09604      0.00000     0.40314    0.00082     0.40396
      H   17    0.09900      0.00000     0.40025    0.00076     0.40100
      H   18    0.09131      0.00000     0.40782    0.00087     0.40869
      H   19    0.09606      0.00000     0.40262    0.00131     0.40394
      H   20    0.10306      0.00000     0.39603    0.00091     0.39694
      H   21    0.09190      0.00000     0.40660    0.00150     0.40810
      H   22    0.08755      0.00000     0.41150    0.00095     0.41245
      H   23    0.09884      0.00000     0.39970    0.00146     0.40116
      H   24    0.09634      0.00000     0.40260    0.00105     0.40366
      H   25    0.09784      0.00000     0.40136    0.00081     0.40216
      H   26    0.11394      0.00000     0.38532    0.00073     0.38606
      H   27    0.09503      0.00000     0.40396    0.00100     0.40497
      H   28    0.10489      0.00000     0.39370    0.00141     0.39511
      H   29    0.08609      0.00000     0.41242    0.00150     0.41391
      H   30    0.08249      0.00000     0.41609    0.00142     0.41751
      H   31    0.08638      0.00000     0.41152    0.00210     0.41362
      H   32    0.09840      0.00000     0.39881    0.00279     0.40160
      H   33    0.09966      0.00000     0.39929    0.00105     0.40034
      H   34    0.09960      0.00000     0.39882    0.00159     0.40040
      H   35    0.10177      0.00000     0.39708    0.00115     0.39823
      H   36    0.09823      0.00000     0.40070    0.00107     0.40177
      H   37    0.10191      0.00000     0.39723    0.00087     0.39809
 =======================================================================
   * Total *    0.00000     14.99383    41.85019    0.15598    57.00000

 Normal termination of Gaussian 16 at Thu Dec 10 17:02:24 2020.
