 Gaussian 16, Revision A.03,

 -----------------------------------------------------------
 # opt freq B3LYP/6-31G(d) empiricaldispersion=gd3bj scf=xqc
 -----------------------------------------------------------

 -------------------------------
 CID_115100926_JID_1237_neutraal
 -------------------------------
 Symbolic Z-matrix:
 Charge =  0 Multiplicity = 1

 SCF Done:  E(RB3LYP) =  -895.169679957     A.U. after   14 cycles
 SCF Done:  E(RB3LYP) =  -895.175862183     A.U. after   12 cycles
 SCF Done:  E(RB3LYP) =  -895.176580112     A.U. after   11 cycles
 SCF Done:  E(RB3LYP) =  -895.176752664     A.U. after   11 cycles
 SCF Done:  E(RB3LYP) =  -895.176782992     A.U. after   10 cycles
 SCF Done:  E(RB3LYP) =  -895.176790528     A.U. after    8 cycles
 SCF Done:  E(RB3LYP) =  -895.176792372     A.U. after    8 cycles
 SCF Done:  E(RB3LYP) =  -895.176792536     A.U. after    7 cycles
 SCF Done:  E(RB3LYP) =  -895.176792637     A.U. after    7 cycles
 SCF Done:  E(RB3LYP) =  -895.176792659     A.U. after    7 cycles
 SCF Done:  E(RB3LYP) =  -895.176792668     A.U. after    7 cycles
 SCF Done:  E(RB3LYP) =  -895.176792649     A.U. after    7 cycles
 SCF Done:  E(RB3LYP) =  -895.176792632     A.U. after    7 cycles
 SCF Done:  E(RB3LYP) =  -895.176792620     A.U. after    7 cycles
 Optimization completed.
    -- Stationary point found.
 Normal termination of Gaussian 16 at Tue Dec  8 19:31:01 2020.

 --------------------------------------------------------------------
 #N Geom=AllCheck Guess=TCheck SCRF=Check GenChk RB3LYP/6-31G(d) Freq
 --------------------------------------------------------------------

 Structure from the checkpoint file:  "JID_1237.chk"
 -------------------------------
 CID_115100926_JID_1237_neutraal
 -------------------------------
 Charge =  0 Multiplicity = 1

 SCF Done:  E(RB3LYP) =  -895.176792620     A.U. after    1 cycles

  Exact polarizability: 106.496  -4.142  92.658   1.927   2.202  85.736
 Approx polarizability: 144.173   0.580 133.258   1.837   5.798 139.608

                      1                      2                      3
                      A                      A                      A
 Frequencies --     48.5454                90.8151               164.4505
 Red. masses --      2.6679                 3.2431                 1.8916
 Frc consts  --      0.0037                 0.0158                 0.0301
 IR Inten    --      0.9862                 2.6268                 0.4896

                      4                      5                      6
                      A                      A                      A
 Frequencies --    178.4925               195.6475               217.7782
 Red. masses --      2.0231                 1.6017                 1.4509
 Frc consts  --      0.0380                 0.0361                 0.0405
 IR Inten    --      1.6660                 1.3656                 1.9281

                      7                      8                      9
                      A                      A                      A
 Frequencies --    234.1890               243.6673               271.4603
 Red. masses --      2.8231                 3.4288                 3.6945
 Frc consts  --      0.0912                 0.1199                 0.1604
 IR Inten    --      1.4643                 0.0963                 5.4292

                     10                     11                     12
                      A                      A                      A
 Frequencies --    288.9154               344.4241               379.7505
 Red. masses --      3.2191                 3.7937                 2.4159
 Frc consts  --      0.1583                 0.2652                 0.2053
 IR Inten    --      4.3015                 3.1801                13.8543

                     13                     14                     15
                      A                      A                      A
 Frequencies --    388.4332               443.6357               466.8217
 Red. masses --      3.1269                 4.6343                 6.0669
 Frc consts  --      0.2780                 0.5374                 0.7790
 IR Inten    --     10.2753                 9.0967                24.7095

                     16                     17                     18
                      A                      A                      A
 Frequencies --    511.2028               540.1043               593.0680
 Red. masses --      3.2449                 2.2265                 2.6393
 Frc consts  --      0.4996                 0.3827                 0.5469
 IR Inten    --     20.0338                 1.2321                 3.0277

                     19                     20                     21
                      A                      A                      A
 Frequencies --    648.5833               662.6811               710.8894
 Red. masses --      4.7801                 1.8806                 5.7399
 Frc consts  --      1.1847                 0.4866                 1.7091
 IR Inten    --     42.5247               131.9291               120.6687

                     22                     23                     24
                      A                      A                      A
 Frequencies --    847.1993               883.2809               909.1987
 Red. masses --      1.7752                 2.3354                 1.9528
 Frc consts  --      0.7507                 1.0735                 0.9511
 IR Inten    --      2.8810                42.5455                20.5976

                     25                     26                     27
                      A                      A                      A
 Frequencies --    940.2148              1008.0044              1019.6340
 Red. masses --      1.5011                 3.0399                 2.6230
 Frc consts  --      0.7818                 1.8199                 1.6067
 IR Inten    --      3.5280                21.3461                48.5163

                     28                     29                     30
                      A                      A                      A
 Frequencies --   1046.2444              1090.6146              1106.8033
 Red. masses --      1.9044                 2.0026                 2.6233
 Frc consts  --      1.2282                 1.4034                 1.8934
 IR Inten    --     14.0503                23.4199                32.5589

                     31                     32                     33
                      A                      A                      A
 Frequencies --   1129.5384              1150.2988              1155.9697
 Red. masses --      3.6362                 1.6800                 1.3651
 Frc consts  --      2.7334                 1.3098                 1.0747
 IR Inten    --    109.4850                18.8927                 0.8384

                     34                     35                     36
                      A                      A                      A
 Frequencies --   1184.8325              1207.8082              1252.0754
 Red. masses --      3.0092                 2.2810                 2.5967
 Frc consts  --      2.4890                 1.9605                 2.3985
 IR Inten    --     48.7222                20.1513                 9.6633

                     37                     38                     39
                      A                      A                      A
 Frequencies --   1270.2206              1311.4454              1319.0090
 Red. masses --      1.7204                 1.5530                 1.3885
 Frc consts  --      1.6354                 1.5737                 1.4233
 IR Inten    --     28.6397                34.2127                38.6933

                     40                     41                     42
                      A                      A                      A
 Frequencies --   1334.2020              1336.2147              1380.4701
 Red. masses --      2.3729                 1.3763                 1.2798
 Frc consts  --      2.4887                 1.4478                 1.4369
 IR Inten    --    104.0397                10.7833                10.7152

                     43                     44                     45
                      A                      A                      A
 Frequencies --   1398.6829              1417.5991              1423.5953
 Red. masses --      1.2610                 1.2484                 1.2707
 Frc consts  --      1.4534                 1.4781                 1.5173
 IR Inten    --      4.6061                 6.9726                 9.8117

                     46                     47                     48
                      A                      A                      A
 Frequencies --   1437.2070              1478.4442              1499.4637
 Red. masses --      1.2126                 1.1553                 1.0800
 Frc consts  --      1.4758                 1.4878                 1.4307
 IR Inten    --      4.8895                 0.3342                 2.7253

                     49                     50                     51
                      A                      A                      A
 Frequencies --   1519.0942              1520.2341              1521.9998
 Red. masses --      1.1986                 1.0573                 1.0798
 Frc consts  --      1.6297                 1.4397                 1.4738
 IR Inten    --     16.8998                 0.3094                19.6815

                     52                     53                     54
                      A                      A                      A
 Frequencies --   1528.3384              1535.2856              1537.7998
 Red. masses --      1.0534                 1.0593                 1.0573
 Frc consts  --      1.4498                 1.4711                 1.4732
 IR Inten    --      7.7079                 6.3158                10.4323

                     55                     56                     57
                      A                      A                      A
 Frequencies --   1538.3840              3000.5810              3033.6014
 Red. masses --      1.1250                 1.0540                 1.0722
 Frc consts  --      1.5686                 5.5911                 5.8133
 IR Inten    --      3.8379                56.3833                50.2652

                     58                     59                     60
                      A                      A                      A
 Frequencies --   3043.3756              3058.1151              3062.5560
 Red. masses --      1.0662                 1.0838                 1.0581
 Frc consts  --      5.8184                 5.9718                 5.8471
 IR Inten    --     35.5130                 8.1213                67.7654

                     61                     62                     63
                      A                      A                      A
 Frequencies --   3063.6985              3097.8551              3103.6901
 Red. masses --      1.0393                 1.0946                 1.0969
 Frc consts  --      5.7475                 6.1889                 6.2258
 IR Inten    --     13.8277                26.0167                24.8464

                     64                     65                     66
                      A                      A                      A
 Frequencies --   3105.2192              3130.1092              3138.7154
 Red. masses --      1.0989                 1.1020                 1.0936
 Frc consts  --      6.2429                 6.3612                 6.3477
 IR Inten    --      4.1275                16.7386                13.5515

                     67                     68                     69
                      A                      A                      A
 Frequencies --   3160.4705              3175.2492              3524.0989
 Red. masses --      1.1019                 1.0980                 1.0739
 Frc consts  --      6.4848                 6.5224                 7.8581
 IR Inten    --      6.7079                 1.5699                 0.3260

 - Thermochemistry -
 -------------------
 Temperature   298.150 Kelvin.  Pressure   1.00000 Atm.
 Atom     1 has atomic number  6 and mass  12.00000

 Molecular mass:   178.07760 amu.
 Principal axes and moments of inertia in atomic units:
                           1         2         3
     Eigenvalues --  1463.376521691.647732292.16267
           X            0.97968  -0.20019   0.01265
           Y            0.19964   0.97924   0.03520
           Z           -0.01943  -0.03196   0.99930
 This molecule is an asymmetric top.
 Rotational symmetry number  1.
 Warning -- assumption of classical behavior for rotation
           may cause significant error
 Rotational temperatures (Kelvin)      0.05919     0.05120     0.03779
 Rotational constants (GHZ):           1.23327     1.06685     0.78735
 Zero-point vibrational energy     565596.2 (Joules/Mol)
                                  135.18073 (Kcal/Mol)
 Warning -- explicit consideration of  18 degrees of freedom as
           vibrations may cause significant error
 Vibrational temperatures:     69.85   130.66   236.61   256.81   281.49
          (Kelvin)            313.33   336.95   350.58   390.57   415.68
                              495.55   546.38   558.87   638.29   671.65
                              735.51   777.09   853.29   933.17   953.45
                             1022.81  1218.93  1270.84  1308.13  1352.76
                             1450.29  1467.03  1505.31  1569.15  1592.44
                             1625.15  1655.02  1663.18  1704.71  1737.77
                             1801.46  1827.56  1886.88  1897.76  1919.62
                             1922.51  1986.19  2012.39  2039.61  2048.24
                             2067.82  2127.15  2157.39  2185.64  2187.28
                             2189.82  2198.94  2208.93  2212.55  2213.39
                             4317.17  4364.68  4378.74  4399.95  4406.34
                             4407.98  4457.12  4465.52  4467.72  4503.53
                             4515.91  4547.21  4568.48  5070.39

 Zero-point correction=                           0.215424 (Hartree/Particle)
 Thermal correction to Energy=                    0.227155
 Thermal correction to Enthalpy=                  0.228099
 Thermal correction to Gibbs Free Energy=         0.178317
 Sum of electronic and zero-point Energies=           -894.961368
 Sum of electronic and thermal Energies=              -894.949638
 Sum of electronic and thermal Enthalpies=            -894.948694
 Sum of electronic and thermal Free Energies=         -894.998476

                     E (Thermal)             CV                S
                      KCal/Mol        Cal/Mol-Kelvin    Cal/Mol-Kelvin
 Total                  142.542             44.480            104.776
 Electronic               0.000              0.000              0.000
 Translational            0.889              2.981             41.438
 Rotational               0.889              2.981             30.118
 Vibrational            140.764             38.518             33.219
 Vibration     1          0.595              1.978              4.876
 Vibration     2          0.602              1.956              3.642
 Vibration     3          0.623              1.886              2.498
 Vibration     4          0.629              1.869              2.344
 Vibration     5          0.636              1.846              2.174
 Vibration     6          0.646              1.814              1.977
 Vibration     7          0.654              1.789              1.847
 Vibration     8          0.659              1.773              1.776
 Vibration     9          0.675              1.726              1.587
 Vibration    10          0.685              1.694              1.480
 Vibration    11          0.723              1.587              1.192
 Vibration    12          0.750              1.513              1.040
 Vibration    13          0.757              1.495              1.006
 Vibration    14          0.803              1.375              0.815
 Vibration    15          0.824              1.324              0.747
 Vibration    16          0.866              1.225              0.631
 Vibration    17          0.895              1.161              0.565
 Vibration    18          0.951              1.047              0.462

 Optimization completed.
    -- Stationary point found.
 Normal termination of Gaussian 16 at Tue Dec  8 19:36:24 2020.

 ----------------------------------------------------------------------
 # B3LYP/6-311++G(d,p) empiricaldispersion=gd3bj scf=xqc pop=npa geom=c
 heck
 ----------------------------------------------------------------------

 ---------------------------------------
 CID_115100926_JID_1237_Energie_neutraal
 ---------------------------------------
 Structure from the checkpoint file:  "JID_1237.chk"
 Charge =  0 Multiplicity = 1

 SCF Done:  E(RB3LYP) =  -895.350918936     A.U. after   14 cycles
 Normal termination of Gaussian 16 at Tue Dec  8 19:38:21 2020.

 ----------------------------------------------------------------------
 # B3LYP/6-311++G(d,p) empiricaldispersion=gd3bj scf=xqc pop=npa geom=c
 heck
 ----------------------------------------------------------------------

 -------------------------------------
 CID_115100926_JID_1237_Energie_kation
 -------------------------------------
 Structure from the checkpoint file:  "JID_1237.chk"
 Charge =  1 Multiplicity = 2

 SCF Done:  E(UB3LYP) =  -895.039837584     A.U. after   21 cycles
 Normal termination of Gaussian 16 at Tue Dec  8 19:42:09 2020.
 Gaussian 16:  ES64L-G16RevA.03 25-Dec-2016

 ----------------------------------------------------------------------
 # B3LYP/6-311++G(d,p) empiricaldispersion=gd3bj scf=xqc pop=npa geom=c
 heck
 ----------------------------------------------------------------------

 ------------------------------------
 CID_115100926_JID_1237_Energie_anion
 ------------------------------------
 Structure from the checkpoint file:  "JID_1237.chk"
 Charge = -1 Multiplicity = 2

                         Standard orientation:
 ---------------------------------------------------------------------
 Center     Atomic      Atomic             Coordinates (Angstroms)
 Number     Number       Type             X           Y           Z
 ---------------------------------------------------------------------
      1          6           0       -2.617173    0.949248   -0.375463
      2          6           0       -1.128867    0.695888   -0.618273
      3          6           0       -0.275840    1.952104   -0.357796
      4          7           0        1.165951    1.869842   -0.513915
      5          6           0        1.916078    1.201722    0.539560
      6          6           0        2.100383   -0.327499    0.406909
      7          7           0        0.950913   -1.085583   -0.110220
      8         16           0       -0.587330   -0.710141    0.419413
      9          8           0       -0.452242   -0.239037    1.802729
     10          8           0       -1.454830   -1.843131    0.080011
     11          6           0        1.081274   -1.726743   -1.415385
     12          1           0       -3.207031    0.056427   -0.593015
     13          1           0       -2.962255    1.766318   -1.018330
     14          1           0       -2.790572    1.234533    0.667121
     15          1           0       -0.969166    0.339778   -1.644019
     16          1           0       -0.651129    2.726772   -1.039347
     17          1           0       -0.480952    2.301723    0.659725
     18          1           0        1.437096    1.562559   -1.443744
     19          1           0        1.412508    1.422102    1.482959
     20          1           0        2.921130    1.641067    0.604450
     21          1           0        2.402201   -0.734085    1.378757
     22          1           0        2.915062   -0.530558   -0.295599
     23          1           0        1.222764   -1.001734   -2.232353
     24          1           0        1.942510   -2.401855   -1.396988
     25          1           0        0.188517   -2.321565   -1.610522
 ---------------------------------------------------------------------

 SCF Done:  E(UB3LYP) =  -895.341242396     A.U. after   25 cycles

 The electronic state is 2-A.
 Alpha  occ. eigenvalues --  -88.95281 -19.01336 -19.01133 -14.23977 -14.19772
 Alpha  occ. eigenvalues --  -10.10874 -10.10545 -10.10389 -10.09702 -10.09373
 Alpha  occ. eigenvalues --  -10.07669  -8.01506  -5.97790  -5.97776  -5.97549
 Alpha  occ. eigenvalues --   -1.01437  -0.90561  -0.83898  -0.80401  -0.71238
 Alpha  occ. eigenvalues --   -0.64787  -0.61270  -0.58251  -0.55737  -0.51227
 Alpha  occ. eigenvalues --   -0.45652  -0.43612  -0.40450  -0.38775  -0.38290
 Alpha  occ. eigenvalues --   -0.36245  -0.35087  -0.33977  -0.33609  -0.31737
 Alpha  occ. eigenvalues --   -0.31069  -0.30672  -0.29262  -0.28713  -0.27120
 Alpha  occ. eigenvalues --   -0.25931  -0.25811  -0.23297  -0.22073  -0.20446
 Alpha  occ. eigenvalues --   -0.19768  -0.15271  -0.12254   0.04479
 Alpha virt. eigenvalues --    0.06948   0.08062   0.08544   0.09959   0.10066
 Alpha virt. eigenvalues --    0.10460   0.11204   0.12165   0.12722   0.13352
 Alpha virt. eigenvalues --    0.13670   0.13839   0.14502   0.15721   0.16730

  Beta  occ. eigenvalues --  -88.95277 -19.01331 -19.01128 -14.23973 -14.19738
  Beta  occ. eigenvalues --  -10.10857 -10.10519 -10.10371 -10.09647 -10.09361
  Beta  occ. eigenvalues --  -10.07650  -8.01502  -5.97778  -5.97773  -5.97546
  Beta  occ. eigenvalues --   -1.01424  -0.90552  -0.83870  -0.80347  -0.71197
  Beta  occ. eigenvalues --   -0.64739  -0.61207  -0.58197  -0.55675  -0.51154
  Beta  occ. eigenvalues --   -0.45600  -0.43562  -0.40402  -0.38725  -0.38252
  Beta  occ. eigenvalues --   -0.36195  -0.35036  -0.33936  -0.33564  -0.31688
  Beta  occ. eigenvalues --   -0.31017  -0.30633  -0.29224  -0.28684  -0.27074
  Beta  occ. eigenvalues --   -0.25890  -0.25767  -0.23270  -0.22056  -0.20435
  Beta  occ. eigenvalues --   -0.19745  -0.15236  -0.12211
  Beta virt. eigenvalues --    0.07267   0.07949   0.08736   0.09339   0.10360
  Beta virt. eigenvalues --    0.10688   0.10929   0.11773   0.12473   0.13289
  Beta virt. eigenvalues --    0.13504   0.13906   0.14271   0.14747   0.16003

 Mulliken charges and spin densities:
               1          2
     1  C    0.350356  -0.965122
     2  C   -1.023534   0.932195
     3  C    0.419061  -1.047281
     4  N   -0.153933   0.127304
     5  C    0.636503  -0.912265
     6  C   -0.442458  -0.023262
     7  N   -0.449594   0.264229
     8  S    1.107731  -0.695286
     9  O   -0.263309   0.002059
    10  O   -0.182987   0.023972
    11  C    1.212878  -1.544526
    12  H    0.112527   0.048503
    13  H   -0.271893   0.427600
    14  H    0.116789   0.044161
    15  H   -0.280079   0.571861
    16  H   -0.359667   0.545842
    17  H    0.156393   0.035326
    18  H   -0.132164   0.375808
    19  H    0.222827  -0.049923
    20  H   -0.385289   0.574813
    21  H    0.025535   0.163749
    22  H   -0.428745   0.600168
    23  H   -0.584066   0.762968
    24  H   -0.504699   0.667999
    25  H    0.101815   0.069109
 Sum of Mulliken charges =  -1.00000   1.00000

 Dipole moment (field-independent basis, Debye):
    X=             -3.2577    Y=             -0.2169    Z=              5.1438  Tot=              6.0925
 Quadrupole moment (field-independent basis, Debye-Ang):
   XX=           -123.0092   YY=           -116.8386   ZZ=           -119.1734
   XY=             -0.4468   XZ=              7.4554   YZ=              7.0297

 Summary of Natural Population Analysis:

                                       Natural Population
                Natural  -----------------------------------------------
    Atom  No    Charge         Core      Valence    Rydberg      Total
 -----------------------------------------------------------------------
      C    1   -0.29637      0.99964     2.28919    0.00754     3.29637
      C    2   -0.21085      0.99955     2.19554    0.01576     3.21085
      C    3   -0.09371      0.99958     2.07923    0.01489     3.09371
      N    4   -0.34207      0.99974     2.82954    0.01278     3.84207
      C    5   -0.09619      0.99961     2.08470    0.01188     3.09619
      C    6   -0.09095      0.99960     2.07816    0.01319     3.09095
      N    7   -0.38116      0.99973     2.86643    0.01500     3.88116
      S    8    1.11428      4.99916     1.78659    0.09997     6.88572
      O    9   -0.47222      0.99991     3.46710    0.00521     4.47222
      O   10   -0.46904      0.99991     3.46375    0.00537     4.46904
      C   11   -0.17901      0.99962     2.16955    0.00984     3.17901
      H   12    0.11136      0.00000     0.38770    0.00093     0.38864
      H   13    0.10634      0.00000     0.39243    0.00123     0.39366
      H   14    0.10257      0.00000     0.39647    0.00096     0.39743
      H   15    0.11470      0.00000     0.38262    0.00269     0.38530
      H   16    0.10308      0.00000     0.39545    0.00147     0.39692
      H   17    0.09704      0.00000     0.40155    0.00142     0.40296
      H   18    0.18126      0.00000     0.31044    0.00831     0.31874
      H   19    0.09984      0.00000     0.39886    0.00130     0.40016
      H   20    0.09513      0.00000     0.40367    0.00119     0.40487
      H   21    0.09898      0.00000     0.39986    0.00116     0.40102
      H   22    0.10302      0.00000     0.39424    0.00273     0.39698
      H   23    0.09389      0.00000     0.40220    0.00391     0.40611
      H   24    0.10025      0.00000     0.39819    0.00156     0.39975
      H   25    0.10982      0.00000     0.38873    0.00145     0.39018
 =======================================================================
   * Total *    0.00000     14.99605    32.76221    0.24173    48.00000

 Normal termination of Gaussian 16 at Tue Dec  8 19:47:07 2020.
