 Gaussian 16, Revision A.03,

 -----------------------------------------------------------
 # opt freq B3LYP/6-31G(d) empiricaldispersion=gd3bj scf=xqc
 -----------------------------------------------------------

 -------------------------------
 CID_141977001_JID_3827_neutraal
 -------------------------------
 Symbolic Z-matrix:
 Charge =  0 Multiplicity = 1

 SCF Done:  E(RB3LYP) =  -597.702960764     A.U. after   13 cycles
 SCF Done:  E(RB3LYP) =  -597.708985069     A.U. after   11 cycles
 SCF Done:  E(RB3LYP) =  -597.710621842     A.U. after   11 cycles
 SCF Done:  E(RB3LYP) =  -597.711251172     A.U. after   11 cycles
 SCF Done:  E(RB3LYP) =  -597.711482459     A.U. after   11 cycles
 SCF Done:  E(RB3LYP) =  -597.711608564     A.U. after   10 cycles
 SCF Done:  E(RB3LYP) =  -597.711745566     A.U. after   10 cycles
 SCF Done:  E(RB3LYP) =  -597.711800505     A.U. after   10 cycles
 SCF Done:  E(RB3LYP) =  -597.711839670     A.U. after    9 cycles
 SCF Done:  E(RB3LYP) =  -597.711860352     A.U. after    9 cycles
 SCF Done:  E(RB3LYP) =  -597.712437425     A.U. after    7 cycles
 SCF Done:  E(RB3LYP) =  -597.712437518     A.U. after    7 cycles
 SCF Done:  E(RB3LYP) =  -597.712437641     A.U. after    7 cycles
 SCF Done:  E(RB3LYP) =  -597.712437758     A.U. after    7 cycles
 SCF Done:  E(RB3LYP) =  -597.712437851     A.U. after    7 cycles
 SCF Done:  E(RB3LYP) =  -597.712437886     A.U. after    7 cycles
 Optimization completed.
    -- Stationary point found.
 Normal termination of Gaussian 16 at Sun Dec 13 12:42:25 2020.

 --------------------------------------------------------------------
 #N Geom=AllCheck Guess=TCheck SCRF=Check GenChk RB3LYP/6-31G(d) Freq
 --------------------------------------------------------------------

 Structure from the checkpoint file:  "JID_3827.chk"
 -------------------------------
 CID_141977001_JID_3827_neutraal
 -------------------------------
 Charge =  0 Multiplicity = 1

 SCF Done:  E(RB3LYP) =  -597.712437886     A.U. after    1 cycles

  Exact polarizability: 135.818   2.620 128.917   0.405  -4.314  91.646
 Approx polarizability: 187.619   3.054 179.694   6.875 -13.702 133.729

                      1                      2                      3
                      A                      A                      A
 Frequencies --     23.8384                25.2406                41.6824
 Red. masses --      3.3545                 2.9936                 2.5998
 Frc consts  --      0.0011                 0.0011                 0.0027
 IR Inten    --      0.0344                 0.9066                 0.0197

                      4                      5                      6
                      A                      A                      A
 Frequencies --     51.8211                57.8803                76.7812
 Red. masses --      3.2968                 3.3106                 3.2464
 Frc consts  --      0.0052                 0.0065                 0.0113
 IR Inten    --      0.8178                 0.1970                 1.0787

                      7                      8                      9
                      A                      A                      A
 Frequencies --     91.1976                95.6309               109.0132
 Red. masses --      2.3357                 3.5793                 2.6871
 Frc consts  --      0.0114                 0.0193                 0.0188
 IR Inten    --      1.7881                 0.6484                 1.8114

                     10                     11                     12
                      A                      A                      A
 Frequencies --    139.8386               142.4223               155.2376
 Red. masses --      1.1360                 1.8437                 2.1356
 Frc consts  --      0.0131                 0.0220                 0.0303
 IR Inten    --      0.6269                 3.4700                 2.4780

                     13                     14                     15
                      A                      A                      A
 Frequencies --    215.9136               243.4647               272.2821
 Red. masses --      1.5779                 1.5490                 2.7669
 Frc consts  --      0.0433                 0.0541                 0.1209
 IR Inten    --      3.9795                 2.5806                 3.9174

                     16                     17                     18
                      A                      A                      A
 Frequencies --    299.9361               340.9391               359.9471
 Red. masses --      3.1113                 1.0177                 2.5557
 Frc consts  --      0.1649                 0.0697                 0.1951
 IR Inten    --     10.8914                 1.3064                 6.9287

                     19                     20                     21
                      A                      A                      A
 Frequencies --    402.7719               454.1163               498.2895
 Red. masses --      1.9519                 3.9136                 3.7373
 Frc consts  --      0.1866                 0.4755                 0.5467
 IR Inten    --      0.6648                 3.3311                 7.3473

                     22                     23                     24
                      A                      A                      A
 Frequencies --    533.4847               642.4760               648.0946
 Red. masses --      1.4392                 2.8359                 3.8466
 Frc consts  --      0.2413                 0.6897                 0.9519
 IR Inten    --     36.0282                 8.9367                 0.2283

                     25                     26                     27
                      A                      A                      A
 Frequencies --    749.4661               761.3716               796.1292
 Red. masses --      3.1513                 3.9908                 1.3195
 Frc consts  --      1.0429                 1.3630                 0.4928
 IR Inten    --     22.0559                15.2001                55.5300

                     28                     29                     30
                      A                      A                      A
 Frequencies --    836.2229               842.9630               852.8750
 Red. masses --      1.0575                 1.0547                 1.3688
 Frc consts  --      0.4357                 0.4416                 0.5866
 IR Inten    --      8.2179                 5.9571                 2.9988

                     31                     32                     33
                      A                      A                      A
 Frequencies --    933.5467               936.4010               983.0212
 Red. masses --      4.3011                 4.3864                 1.9381
 Frc consts  --      2.2085                 2.2661                 1.1034
 IR Inten    --     30.7207                35.8160                 6.1762

                     34                     35                     36
                      A                      A                      A
 Frequencies --   1004.9140              1014.4751              1028.6030
 Red. masses --      2.3733                 3.2445                 2.8090
 Frc consts  --      1.4121                 1.9674                 1.7511
 IR Inten    --      5.6121                 0.3675                 5.5143

                     37                     38                     39
                      A                      A                      A
 Frequencies --   1037.7946              1071.8154              1125.9247
 Red. masses --      2.0664                 1.5796                 4.3383
 Frc consts  --      1.3113                 1.0692                 3.2403
 IR Inten    --      6.0504                14.2422                43.0151

                     40                     41                     42
                      A                      A                      A
 Frequencies --   1139.8786              1190.2382              1191.4198
 Red. masses --      4.2727                 1.2891                 1.2854
 Frc consts  --      3.2709                 1.0760                 1.0751
 IR Inten    --    178.8888                 6.3462                 7.7921

                     43                     44                     45
                      A                      A                      A
 Frequencies --   1206.9912              1218.5430              1225.1627
 Red. masses --      1.5431                 1.5054                 1.5669
 Frc consts  --      1.3245                 1.3170                 1.3857
 IR Inten    --     35.9190                45.6504                35.1741

                     46                     47                     48
                      A                      A                      A
 Frequencies --   1236.5156              1242.2315              1273.3017
 Red. masses --      1.4627                 1.4481                 1.5066
 Frc consts  --      1.3176                 1.3166                 1.4392
 IR Inten    --      1.0318                 0.1449                11.3090

                     49                     50                     51
                      A                      A                      A
 Frequencies --   1301.6345              1324.4074              1335.7823
 Red. masses --      1.7277                 2.3743                 1.2151
 Frc consts  --      1.7247                 2.4538                 1.2774
 IR Inten    --      6.8456                11.8271                11.5614

                     52                     53                     54
                      A                      A                      A
 Frequencies --   1399.0862              1415.4097              1426.1031
 Red. masses --      1.3457                 1.2985                 1.2034
 Frc consts  --      1.5520                 1.5327                 1.4420
 IR Inten    --     67.6473                24.6248                 1.5208

                     55                     56                     57
                      A                      A                      A
 Frequencies --   1449.7376              1466.4293              1480.0953
 Red. masses --      1.2664                 2.7078                 2.8953
 Frc consts  --      1.5682                 3.4307                 3.7369
 IR Inten    --      0.7859                 6.1641                 3.5738

                     58                     59                     60
                      A                      A                      A
 Frequencies --   1499.3625              1500.3423              1511.2661
 Red. masses --      1.2214                 1.1761                 1.0616
 Frc consts  --      1.6178                 1.5599                 1.4285
 IR Inten    --      3.2500                 1.5244                 1.8156

                     61                     62                     63
                      A                      A                      A
 Frequencies --   1511.4589              1515.8967              1518.5841
 Red. masses --      1.0899                 1.0671                 1.0985
 Frc consts  --      1.4669                 1.4447                 1.4925
 IR Inten    --      0.6050                 2.1709                 1.9073

                     64                     65                     66
                      A                      A                      A
 Frequencies --   1532.2097              1533.5145              1537.4891
 Red. masses --      1.0316                 1.0395                 1.4233
 Frc consts  --      1.4270                 1.4404                 1.9823
 IR Inten    --      2.2543                 7.7896                 7.4636

                     67                     68                     69
                      A                      A                      A
 Frequencies --   1541.1022              1541.7205              1544.8864
 Red. masses --      1.0563                 2.5428                 1.0508
 Frc consts  --      1.4781                 3.5611                 1.4777
 IR Inten    --      3.8600                 0.4831                 6.5958

                     70                     71                     72
                      A                      A                      A
 Frequencies --   1549.5952              1641.3330              2971.0837
 Red. masses --      1.0538                 4.0758                 1.0706
 Frc consts  --      1.4909                 6.4693                 5.5680
 IR Inten    --     10.8222                 0.5038                56.3670

                     73                     74                     75
                      A                      A                      A
 Frequencies --   2989.3408              3005.8735              3017.1136
 Red. masses --      1.0446                 1.0406                 1.0632
 Frc consts  --      5.4997                 5.5396                 5.7023
 IR Inten    --     73.3990                44.8385                73.7039

                     76                     77                     78
                      A                      A                      A
 Frequencies --   3033.9961              3045.0106              3052.6374
 Red. masses --      1.0415                 1.0966                 1.0372
 Frc consts  --      5.6488                 5.9905                 5.6949
 IR Inten    --     39.4614                50.2243                38.2239

                     79                     80                     81
                      A                      A                      A
 Frequencies --   3062.7084              3075.8445              3088.5530
 Red. masses --      1.1008                 1.0989                 1.0948
 Frc consts  --      6.0838                 6.1254                 6.1534
 IR Inten    --     48.8905                30.3702                16.8045

                     82                     83                     84
                      A                      A                      A
 Frequencies --   3106.3046              3112.4829              3120.9939
 Red. masses --      1.1018                 1.0906                 1.1015
 Frc consts  --      6.2637                 6.2246                 6.3215
 IR Inten    --     19.7343                25.3662                61.6063

                     85                     86                     87
                      A                      A                      A
 Frequencies --   3137.2483              3143.5949              3144.6656
 Red. masses --      1.0970                 1.1016                 1.0992
 Frc consts  --      6.3613                 6.4140                 6.4041
 IR Inten    --     36.3837                42.4603                14.1052

                     88                     89                     90
                      A                      A                      A
 Frequencies --   3248.3650              3263.9500              3648.2645
 Red. masses --      1.0918                 1.1001                 1.0797
 Frc consts  --      6.7877                 6.9050                 8.4666
 IR Inten    --      7.2902                 5.7108               115.0477

 - Thermochemistry -
 -------------------
 Temperature   298.150 Kelvin.  Pressure   1.00000 Atm.
 Atom     1 has atomic number  6 and mass  12.00000

 Molecular mass:   185.14158 amu.
 Principal axes and moments of inertia in atomic units:
                           1         2         3
     Eigenvalues --  2246.940393257.326764769.90972
           X            0.99893  -0.04620  -0.00174
           Y            0.04618   0.99886  -0.01169
           Z            0.00227   0.01159   0.99993
 This molecule is an asymmetric top.
 Rotational symmetry number  1.
 Warning -- assumption of classical behavior for rotation
           may cause significant error
 Rotational temperatures (Kelvin)      0.03855     0.02659     0.01816
 Rotational constants (GHZ):           0.80320     0.55406     0.37836
 Zero-point vibrational energy     742687.1 (Joules/Mol)
                                  177.50647 (Kcal/Mol)
 Warning -- explicit consideration of  22 degrees of freedom as
           vibrations may cause significant error
 Vibrational temperatures:     34.30    36.32    59.97    74.56    83.28
          (Kelvin)            110.47   131.21   137.59   156.85   201.20
                              204.91   223.35   310.65   350.29   391.75
                              431.54   490.54   517.88   579.50   653.37
                              716.93   767.57   924.38   932.46  1078.31
                             1095.44  1145.45  1203.14  1212.84  1227.10
                             1343.17  1347.27  1414.35  1445.85  1459.60
                             1479.93  1493.15  1542.10  1619.95  1640.03
                             1712.49  1714.19  1736.59  1753.21  1762.74
                             1779.07  1787.29  1832.00  1872.76  1905.53
                             1921.89  2012.97  2036.46  2051.84  2085.85
                             2109.86  2129.53  2157.25  2158.66  2174.37
                             2174.65  2181.04  2184.90  2204.51  2206.39
                             2212.10  2217.30  2218.19  2222.75  2229.52
                             2361.51  4274.73  4300.99  4324.78  4340.95
                             4365.24  4381.09  4392.06  4406.55  4425.45
                             4443.74  4469.28  4478.17  4490.41  4513.80
                             4522.93  4524.47  4673.67  4696.10  5249.04

 Zero-point correction=                           0.282875 (Hartree/Particle)
 Thermal correction to Energy=                    0.299886
 Thermal correction to Enthalpy=                  0.300830
 Thermal correction to Gibbs Free Energy=         0.235003
 Sum of electronic and zero-point Energies=           -597.429563
 Sum of electronic and thermal Energies=              -597.412552
 Sum of electronic and thermal Enthalpies=            -597.411608
 Sum of electronic and thermal Free Energies=         -597.477435

                     E (Thermal)             CV                S
                      KCal/Mol        Cal/Mol-Kelvin    Cal/Mol-Kelvin
 Total                  188.181             57.481            138.546
 Electronic               0.000              0.000              0.000
 Translational            0.889              2.981             41.554
 Rotational               0.889              2.981             31.924
 Vibrational            186.404             51.520             65.068
 Vibration     1          0.593              1.985              6.286
 Vibration     2          0.593              1.985              6.172
 Vibration     3          0.594              1.981              5.177
 Vibration     4          0.596              1.977              4.747
 Vibration     5          0.596              1.974              4.528
 Vibration     6          0.599              1.965              3.972
 Vibration     7          0.602              1.955              3.634
 Vibration     8          0.603              1.952              3.541
 Vibration     9          0.606              1.942              3.286
 Vibration    10          0.615              1.913              2.806
 Vibration    11          0.616              1.911              2.771
 Vibration    12          0.620              1.897              2.607
 Vibration    13          0.645              1.817              1.993
 Vibration    14          0.659              1.774              1.777
 Vibration    15          0.675              1.724              1.582
 Vibration    16          0.692              1.674              1.417
 Vibration    17          0.720              1.594              1.208
 Vibration    18          0.734              1.555              1.122
 Vibration    19          0.768              1.464              0.953
 Vibration    20          0.813              1.352              0.783
 Vibration    21          0.854              1.254              0.662
 Vibration    22          0.888              1.176              0.579

                           ! Non-Optimized Parameters !
 Normal termination of Gaussian 16 at Sun Dec 13 12:50:46 2020.

 ----------------------------------------------------------------------
 # B3LYP/6-311++G(d,p) empiricaldispersion=gd3bj scf=xqc pop=npa geom=c
 heck
 ----------------------------------------------------------------------

 ---------------------------------------
 CID_141977001_JID_3827_Energie_neutraal
 ---------------------------------------
 Structure from the checkpoint file:  "JID_3827.chk"
 Charge =  0 Multiplicity = 1

 SCF Done:  E(RB3LYP) =  -597.889769938     A.U. after   14 cycles
 Normal termination of Gaussian 16 at Sun Dec 13 12:54:39 2020.

 ----------------------------------------------------------------------
 # B3LYP/6-311++G(d,p) empiricaldispersion=gd3bj scf=xqc pop=npa geom=c
 heck
 ----------------------------------------------------------------------

 -------------------------------------
 CID_141977001_JID_3827_Energie_kation
 -------------------------------------
 Structure from the checkpoint file:  "JID_3827.chk"
 Charge =  1 Multiplicity = 2

 SCF Done:  E(UB3LYP) =  -597.601162414     A.U. after   19 cycles
 Normal termination of Gaussian 16 at Sun Dec 13 13:02:12 2020.
 Gaussian 16:  ES64L-G16RevA.03 25-Dec-2016

 ----------------------------------------------------------------------
 # B3LYP/6-311++G(d,p) empiricaldispersion=gd3bj scf=xqc pop=npa geom=c
 heck
 ----------------------------------------------------------------------

 ------------------------------------
 CID_141977001_JID_3827_Energie_anion
 ------------------------------------
 Structure from the checkpoint file:  "JID_3827.chk"
 Charge = -1 Multiplicity = 2

                         Standard orientation:
 ---------------------------------------------------------------------
 Center     Atomic      Atomic             Coordinates (Angstroms)
 Number     Number       Type             X           Y           Z
 ---------------------------------------------------------------------
      1          6           0       -1.742817    2.411993   -0.485233
      2          6           0       -3.250520    2.157034   -0.470985
      3          6           0        1.830826    2.001047    1.185481
      4          8           0        2.934176    1.548272    0.430434
      5          6           0        2.555050    0.853304   -0.754304
      6          6           0        1.782496   -0.405096   -0.515912
      7          6           0        2.180060   -1.632692   -0.016421
      8          6           0        1.022041   -2.449118    0.100946
      9          6           0       -0.059628   -1.708606   -0.340354
     10          7           0        0.419310   -0.474543   -0.712815
     11          6           0       -1.511910   -2.032466   -0.468485
     12          8           0       -2.354799   -1.025603    0.089746
     13          6           0       -2.232303   -0.913841    1.496662
     14          1           0       -1.304947    2.129187   -1.452204
     15          1           0       -1.239646    1.835510    0.298635
     16          1           0       -1.503177    3.469174   -0.323097
     17          1           0       -3.756629    2.714455   -1.267176
     18          1           0       -3.459118    1.091913   -0.606451
     19          1           0       -3.692220    2.469737    0.482410
     20          1           0        2.234299    2.556416    2.035922
     21          1           0        1.217853    1.168133    1.560086
     22          1           0        1.183768    2.672031    0.595713
     23          1           0        1.972631    1.523211   -1.411622
     24          1           0        3.499081    0.629378   -1.258557
     25          1           0        3.195061   -1.900416    0.244280
     26          1           0        0.978560   -3.471020    0.453995
     27          1           0       -0.169434    0.295725   -0.996261
     28          1           0       -1.822828   -2.094511   -1.518141
     29          1           0       -1.705096   -3.010343   -0.001552
     30          1           0       -2.527323   -1.848856    1.997535
     31          1           0       -1.205232   -0.667072    1.799038
     32          1           0       -2.905553   -0.111561    1.807355
 ---------------------------------------------------------------------

 SCF Done:  E(UB3LYP) =  -597.875322741     A.U. after   32 cycles

 The electronic state is 2-A.
 Alpha  occ. eigenvalues --  -19.03312 -19.03202 -14.25951 -10.13210 -10.12981
 Alpha  occ. eigenvalues --  -10.11303 -10.11113 -10.10135 -10.10093 -10.06432
 Alpha  occ. eigenvalues --  -10.06339 -10.05993 -10.05312  -0.94438  -0.94315
 Alpha  occ. eigenvalues --   -0.88343  -0.68260  -0.68142  -0.65283  -0.64117
 Alpha  occ. eigenvalues --   -0.60056  -0.56054  -0.52389  -0.51704  -0.49432
 Alpha  occ. eigenvalues --   -0.47810  -0.42341  -0.39451  -0.38962  -0.38574
 Alpha  occ. eigenvalues --   -0.38463  -0.36273  -0.34368  -0.33666  -0.33535
 Alpha  occ. eigenvalues --   -0.32909  -0.31307  -0.30952  -0.30008  -0.29360
 Alpha  occ. eigenvalues --   -0.27988  -0.27766  -0.26903  -0.24587  -0.24532
 Alpha  occ. eigenvalues --   -0.23025  -0.22544  -0.17551  -0.17244  -0.15629
 Alpha  occ. eigenvalues --   -0.11992   0.04411
 Alpha virt. eigenvalues --    0.06551   0.07123   0.07409   0.08560   0.08600
 Alpha virt. eigenvalues --    0.09014   0.09700   0.10121   0.10418   0.10884
 Alpha virt. eigenvalues --    0.11647   0.12108   0.12734   0.13304   0.13381

  Beta  occ. eigenvalues --  -19.03306 -19.03198 -14.25934 -10.13195 -10.12957
  Beta  occ. eigenvalues --  -10.11278 -10.11075 -10.10129 -10.10092 -10.06422
  Beta  occ. eigenvalues --  -10.06333 -10.05952 -10.05286  -0.94428  -0.94305
  Beta  occ. eigenvalues --   -0.88324  -0.68235  -0.68115  -0.65234  -0.64078
  Beta  occ. eigenvalues --   -0.60013  -0.55995  -0.52333  -0.51600  -0.49397
  Beta  occ. eigenvalues --   -0.47782  -0.42304  -0.39416  -0.38918  -0.38542
  Beta  occ. eigenvalues --   -0.38435  -0.36248  -0.34345  -0.33628  -0.33501
  Beta  occ. eigenvalues --   -0.32879  -0.31279  -0.30919  -0.29985  -0.29331
  Beta  occ. eigenvalues --   -0.27956  -0.27739  -0.26821  -0.24549  -0.24494
  Beta  occ. eigenvalues --   -0.22998  -0.22507  -0.17528  -0.17226  -0.15606
  Beta  occ. eigenvalues --   -0.11961
  Beta virt. eigenvalues --    0.06522   0.07479   0.07566   0.07980   0.08896
  Beta virt. eigenvalues --    0.09013   0.09517   0.10138   0.10496   0.10706
  Beta virt. eigenvalues --    0.11236   0.11939   0.12547   0.13098   0.13405

 Mulliken charges and spin densities:
               1          2
     1  C   -0.773514   0.490974
     2  C    1.042756  -1.612290
     3  C   -0.135570  -0.277127
     4  O   -0.113815   0.032954
     5  C    0.787534  -1.725921
     6  C   -0.144103   0.313816
     7  C   -0.490058   0.527064
     8  C   -0.503878   0.406316
     9  C   -0.235076   0.682554
    10  N   -0.028579   0.058086
    11  C    0.972398  -1.920803
    12  O   -0.132473   0.057426
    13  C    0.528165  -0.883115
    14  H   -0.286188   0.419740
    15  H    0.620023  -0.486049
    16  H   -0.469321   0.608115
    17  H   -0.184677   0.305716
    18  H    0.078958   0.118990
    19  H   -0.199601   0.328089
    20  H   -0.295063   0.441558
    21  H    0.229624  -0.062045
    22  H    0.023525   0.133175
    23  H   -0.273752   0.428387
    24  H   -0.006999   0.182832
    25  H   -0.065545   0.219988
    26  H   -0.434463   0.591806
    27  H    0.508866  -0.179899
    28  H   -0.350567   0.539680
    29  H   -0.061009   0.222225
    30  H   -0.416640   0.539984
    31  H   -0.155066   0.297427
    32  H   -0.035891   0.200345
 Sum of Mulliken charges =  -1.00000   1.00000

 Dipole moment (field-independent basis, Debye):
    X=              2.8250    Y=             -1.8454    Z=             -0.0590  Tot=              3.3748
 Quadrupole moment (field-independent basis, Debye-Ang):
   XX=           -141.5439   YY=           -142.9301   ZZ=           -118.5537
   XY=             -0.1410   XZ=             -1.5065   YZ=              3.2845

 Summary of Natural Population Analysis:

                                       Natural Population
                Natural  -----------------------------------------------
    Atom  No    Charge         Core      Valence    Rydberg      Total
 -----------------------------------------------------------------------
      C    1   -0.28768      0.99968     2.28224    0.00575     3.28768
      C    2   -0.28773      0.99968     2.28375    0.00430     3.28773
      C    3   -0.10353      0.99962     2.09378    0.01013     3.10353
      O    4   -0.29547      0.99989     3.28577    0.00981     4.29547
      C    5   -0.02595      0.99953     2.01280    0.01362     3.02595
      C    6    0.04973      0.99953     1.93821    0.01253     2.95027
      C    7   -0.13562      0.99950     2.12757    0.00854     3.13562
      C    8   -0.13784      0.99951     2.12920    0.00913     3.13784
      C    9    0.05062      0.99953     1.93638    0.01346     2.94938
      N   10   -0.26787      0.99962     2.75891    0.00934     3.76787
      C   11   -0.02233      0.99953     2.00964    0.01316     3.02233
      O   12   -0.30002      0.99990     3.28927    0.01086     4.30002
      C   13   -0.10256      0.99961     2.09255    0.01040     3.10256
      H   14    0.09091      0.00000     0.40720    0.00189     0.40909
      H   15    0.09426      0.00000     0.40377    0.00197     0.40574
      H   16    0.09720      0.00000     0.40133    0.00147     0.40280
      H   17    0.09291      0.00000     0.40590    0.00119     0.40709
      H   18    0.10598      0.00000     0.39210    0.00191     0.39402
      H   19    0.09327      0.00000     0.40544    0.00129     0.40673
      H   20    0.08973      0.00000     0.40913    0.00114     0.41027
      H   21    0.08264      0.00000     0.41543    0.00193     0.41736
      H   22    0.07961      0.00000     0.41872    0.00167     0.42039
      H   23    0.08432      0.00000     0.41396    0.00173     0.41568
      H   24    0.09765      0.00000     0.40106    0.00130     0.40235
      H   25    0.10409      0.00000     0.39511    0.00080     0.39591
      H   26    0.10474      0.00000     0.39431    0.00095     0.39526
      H   27    0.20808      0.00000     0.28749    0.00443     0.29192
      H   28    0.09747      0.00000     0.40085    0.00168     0.40253
      H   29    0.08833      0.00000     0.41001    0.00166     0.41167
      H   30    0.07971      0.00000     0.41867    0.00162     0.42029
      H   31    0.08273      0.00000     0.41527    0.00200     0.41727
      H   32    0.09262      0.00000     0.40615    0.00123     0.40738
 =======================================================================
   * Total *   -0.00000     12.99514    37.84196    0.16290    51.00000

 Normal termination of Gaussian 16 at Sun Dec 13 13:14:49 2020.
