 Gaussian 16, Revision A.03,

 -----------------------------------------------------------
 # opt freq B3LYP/6-31G(d) empiricaldispersion=gd3bj scf=xqc
 -----------------------------------------------------------

 -----------------------------
 CID_20691484_JID_341_neutraal
 -----------------------------
 Symbolic Z-matrix:
 Charge =  0 Multiplicity = 1

 SCF Done:  E(RB3LYP) =  -481.013482262     A.U. after   14 cycles
 SCF Done:  E(RB3LYP) =  -481.016944613     A.U. after   12 cycles
 SCF Done:  E(RB3LYP) =  -481.017158482     A.U. after   12 cycles
 SCF Done:  E(RB3LYP) =  -481.017069317     A.U. after   12 cycles
 SCF Done:  E(RB3LYP) =  -481.017349565     A.U. after   11 cycles
 SCF Done:  E(RB3LYP) =  -481.017432426     A.U. after   10 cycles
 SCF Done:  E(RB3LYP) =  -481.017487145     A.U. after   11 cycles
 SCF Done:  E(RB3LYP) =  -481.017534897     A.U. after   12 cycles
 SCF Done:  E(RB3LYP) =  -481.017571581     A.U. after   12 cycles
 SCF Done:  E(RB3LYP) =  -481.017606688     A.U. after   12 cycles
 SCF Done:  E(RB3LYP) =  -481.017948206     A.U. after   12 cycles
 SCF Done:  E(RB3LYP) =  -481.017956897     A.U. after   11 cycles
 SCF Done:  E(RB3LYP) =  -481.017958089     A.U. after   10 cycles
 SCF Done:  E(RB3LYP) =  -481.017958496     A.U. after    8 cycles
 SCF Done:  E(RB3LYP) =  -481.017958667     A.U. after    7 cycles
 SCF Done:  E(RB3LYP) =  -481.017958738     A.U. after    7 cycles
 Optimization completed.
    -- Stationary point found.
 Normal termination of Gaussian 16 at Tue Dec  8 10:28:46 2020.

 --------------------------------------------------------------------
 #N Geom=AllCheck Guess=TCheck SCRF=Check GenChk RB3LYP/6-31G(d) Freq
 --------------------------------------------------------------------

 Structure from the checkpoint file:  "JID_341.chk"
 -----------------------------
 CID_20691484_JID_341_neutraal
 -----------------------------
 Charge =  0 Multiplicity = 1

 SCF Done:  E(RB3LYP) =  -481.017958738     A.U. after    1 cycles

  Exact polarizability: 102.594  -2.023  84.213   1.029  -1.786  72.647
 Approx polarizability: 122.970  -3.737 119.681   3.496  -8.407 108.472

                      1                      2                      3
                      A                      A                      A
 Frequencies --     20.4722                98.7097               118.4949
 Red. masses --      4.4522                 2.7277                 1.7013
 Frc consts  --      0.0011                 0.0157                 0.0141
 IR Inten    --      1.0632                 1.9088                 1.1040

                      4                      5                      6
                      A                      A                      A
 Frequencies --    130.8107               145.8386               160.4192
 Red. masses --      2.2398                 1.3938                 3.0100
 Frc consts  --      0.0226                 0.0175                 0.0456
 IR Inten    --      2.6589                 0.2097                 0.8936

                      7                      8                      9
                      A                      A                      A
 Frequencies --    213.9955               217.8379               232.7557
 Red. masses --      1.4717                 1.3721                 1.1562
 Frc consts  --      0.0397                 0.0384                 0.0369
 IR Inten    --      0.1864                 0.3053                 1.1377

                     10                     11                     12
                      A                      A                      A
 Frequencies --    247.0657               297.9711               312.8420
 Red. masses --      2.2298                 1.9513                 3.1071
 Frc consts  --      0.0802                 0.1021                 0.1792
 IR Inten    --      4.7780                 0.9032                 5.6883

                     13                     14                     15
                      A                      A                      A
 Frequencies --    328.9814               372.6361               446.0023
 Red. masses --      2.9793                 4.7004                 3.5825
 Frc consts  --      0.1900                 0.3846                 0.4199
 IR Inten    --      2.6871                13.1556                 7.3193

                     16                     17                     18
                      A                      A                      A
 Frequencies --    458.8784               578.3483               644.1892
 Red. masses --      2.5717                 3.0839                 3.9876
 Frc consts  --      0.3190                 0.6078                 0.9750
 IR Inten    --      1.8466                 3.8992                 6.4291

                     19                     20                     21
                      A                      A                      A
 Frequencies --    766.1702               786.7937               845.4649
 Red. masses --      3.3522                 2.2121                 2.4622
 Frc consts  --      1.1594                 0.8068                 1.0370
 IR Inten    --      1.8511                42.8174                35.4135

                     22                     23                     24
                      A                      A                      A
 Frequencies --    883.6378               929.7095               992.6140
 Red. masses --      1.7860                 1.6237                 1.6290
 Frc consts  --      0.8216                 0.8269                 0.9457
 IR Inten    --     44.1684                 8.2902                 1.5472

                     25                     26                     27
                      A                      A                      A
 Frequencies --   1017.2235              1032.5551              1076.4623
 Red. masses --      1.7173                 3.1841                 2.2132
 Frc consts  --      1.0469                 2.0001                 1.5110
 IR Inten    --      2.1757                16.2079                 1.4374

                     28                     29                     30
                      A                      A                      A
 Frequencies --   1088.8460              1131.1620              1152.2938
 Red. masses --      1.4724                 2.2884                 2.0365
 Frc consts  --      1.0285                 1.7252                 1.5932
 IR Inten    --     40.5381                 1.2550                61.0380

                     31                     32                     33
                      A                      A                      A
 Frequencies --   1179.0124              1185.7550              1193.6448
 Red. masses --      1.9312                 1.2774                 1.9302
 Frc consts  --      1.5817                 1.0582                 1.6203
 IR Inten    --     24.6517                 1.5274                70.2074

                     34                     35                     36
                      A                      A                      A
 Frequencies --   1219.8547              1246.3266              1253.8882
 Red. masses --      1.5193                 2.2068                 2.6196
 Frc consts  --      1.3320                 2.0197                 2.4266
 IR Inten    --      0.3454                87.7175               241.1234

                     37                     38                     39
                      A                      A                      A
 Frequencies --   1316.5997              1354.4427              1381.4111
 Red. masses --      1.3548                 1.9036                 1.2730
 Frc consts  --      1.3837                 2.0575                 1.4313
 IR Inten    --      1.6470                52.0066                 2.9344

                     40                     41                     42
                      A                      A                      A
 Frequencies --   1400.7365              1431.5881              1438.8477
 Red. masses --      1.4564                 1.2741                 1.2218
 Frc consts  --      1.6836                 1.5385                 1.4903
 IR Inten    --     12.5075                14.1523                 6.2539

                     43                     44                     45
                      A                      A                      A
 Frequencies --   1482.4353              1492.5814              1509.4171
 Red. masses --      1.1607                 1.2120                 1.1276
 Frc consts  --      1.5029                 1.5908                 1.5137
 IR Inten    --      3.9123                 6.1456                36.5161

                     46                     47                     48
                      A                      A                      A
 Frequencies --   1512.8180              1521.6657              1524.6917
 Red. masses --      1.0481                 1.0765                 1.0522
 Frc consts  --      1.4133                 1.4685                 1.4411
 IR Inten    --      5.6006                 3.6893                 4.7160

                     49                     50                     51
                      A                      A                      A
 Frequencies --   1527.8608              1533.5726              1539.1055
 Red. masses --      1.0549                 1.0626                 1.0853
 Frc consts  --      1.4509                 1.4724                 1.5147
 IR Inten    --     12.8366                 9.2502                 3.2670

                     52                     53                     54
                      A                      A                      A
 Frequencies --   1545.6500              1551.0440              1801.1026
 Red. masses --      1.0640                 1.0460                10.6699
 Frc consts  --      1.4976                 1.4826                20.3933
 IR Inten    --     17.7113                14.4569               192.4129

                     55                     56                     57
                      A                      A                      A
 Frequencies --   2966.5205              3020.6011              3048.9788
 Red. masses --      1.0588                 1.0838                 1.0823
 Frc consts  --      5.4896                 5.8265                 5.9277
 IR Inten    --     91.3143                27.7695                 8.7986

                     58                     59                     60
                      A                      A                      A
 Frequencies --   3059.2540              3063.6858              3064.8707
 Red. masses --      1.0374                 1.0376                 1.0742
 Frc consts  --      5.7204                 5.7380                 5.9453
 IR Inten    --      5.4311                35.2045                58.3850

                     61                     62                     63
                      A                      A                      A
 Frequencies --   3076.4789              3112.2584              3119.1327
 Red. masses --      1.0295                 1.1014                 1.1007
 Frc consts  --      5.7409                 6.2857                 6.3091
 IR Inten    --     31.1241                36.9813                34.1427

                     64                     65                     66
                      A                      A                      A
 Frequencies --   3126.5269              3144.7910              3151.0511
 Red. masses --      1.1019                 1.1021                 1.1075
 Frc consts  --      6.3461                 6.4218                 6.4788
 IR Inten    --     30.7591                16.9576                21.2722

                     67                     68                     69
                      A                      A                      A
 Frequencies --   3153.3361              3183.1460              3517.6373
 Red. masses --      1.1009                 1.1072                 1.0736
 Frc consts  --      6.4500                 6.6099                 7.8268
 IR Inten    --     19.9656                18.0324                10.2508

 - Thermochemistry -
 -------------------
 Temperature   298.150 Kelvin.  Pressure   1.00000 Atm.
 Atom     1 has atomic number  6 and mass  12.00000

 Molecular mass:   145.11028 amu.
 Principal axes and moments of inertia in atomic units:
                           1         2         3
     Eigenvalues --   839.908302257.786752626.22937
           X            1.00000  -0.00146   0.00220
           Y            0.00142   0.99987   0.01591
           Z           -0.00222  -0.01591   0.99987
 This molecule is an asymmetric top.
 Rotational symmetry number  1.
 Warning -- assumption of classical behavior for rotation
           may cause significant error
 Rotational temperatures (Kelvin)      0.10312     0.03836     0.03298
 Rotational constants (GHZ):           2.14874     0.79934     0.68720
 Zero-point vibrational energy     584265.1 (Joules/Mol)
                                  139.64272 (Kcal/Mol)
 Warning -- explicit consideration of  17 degrees of freedom as
           vibrations may cause significant error
 Vibrational temperatures:     29.45   142.02   170.49   188.21   209.83
          (Kelvin)            230.81   307.89   313.42   334.88   355.47
                              428.71   450.11   473.33   536.14   641.70
                              660.22   832.11   926.84  1102.35  1132.02
                             1216.44  1271.36  1337.64  1428.15  1463.56
                             1485.62  1548.79  1566.61  1627.49  1657.89
                             1696.34  1706.04  1717.39  1755.10  1793.19
                             1804.07  1894.29  1948.74  1987.54  2015.35
                             2059.74  2070.18  2132.89  2147.49  2171.71
                             2176.61  2189.34  2193.69  2198.25  2206.47
                             2214.43  2223.85  2231.61  2591.38  4268.16
                             4345.97  4386.80  4401.58  4407.96  4409.67
                             4426.37  4477.85  4487.74  4498.37  4524.65
                             4533.66  4536.95  4579.84  5061.10

 Zero-point correction=                           0.222535 (Hartree/Particle)
 Thermal correction to Energy=                    0.234851
 Thermal correction to Enthalpy=                  0.235795
 Thermal correction to Gibbs Free Energy=         0.183889
 Sum of electronic and zero-point Energies=           -480.795424
 Sum of electronic and thermal Energies=              -480.783108
 Sum of electronic and thermal Enthalpies=            -480.782164
 Sum of electronic and thermal Free Energies=         -480.834069

                     E (Thermal)             CV                S
                      KCal/Mol        Cal/Mol-Kelvin    Cal/Mol-Kelvin
 Total                  147.371             43.703            109.244
 Electronic               0.000              0.000              0.000
 Translational            0.889              2.981             40.828
 Rotational               0.889              2.981             29.989
 Vibrational            145.594             37.742             38.427
 Vibration     1          0.593              1.986              6.588
 Vibration     2          0.604              1.950              3.480
 Vibration     3          0.609              1.934              3.125
 Vibration     4          0.612              1.923              2.934
 Vibration     5          0.617              1.907              2.726
 Vibration     6          0.622              1.891              2.545
 Vibration     7          0.644              1.820              2.009
 Vibration     8          0.646              1.814              1.977
 Vibration     9          0.654              1.791              1.858
 Vibration    10          0.661              1.768              1.751
 Vibration    11          0.691              1.677              1.428
 Vibration    12          0.701              1.649              1.347
 Vibration    13          0.712              1.618              1.265
 Vibration    14          0.744              1.528              1.069
 Vibration    15          0.805              1.370              0.808
 Vibration    16          0.817              1.341              0.769
 Vibration    17          0.935              1.078              0.488

                           ! Non-Optimized Parameters !
 Normal termination of Gaussian 16 at Tue Dec  8 10:33:06 2020.

 ----------------------------------------------------------------------
 # B3LYP/6-311++G(d,p) empiricaldispersion=gd3bj scf=xqc pop=npa geom=c
 heck
 ----------------------------------------------------------------------

 -------------------------------------
 CID_20691484_JID_341_Energie_neutraal
 -------------------------------------
 Structure from the checkpoint file:  "JID_341.chk"
 Charge =  0 Multiplicity = 1

 SCF Done:  E(RB3LYP) =  -481.164064513     A.U. after   14 cycles
 Normal termination of Gaussian 16 at Tue Dec  8 10:37:03 2020.

 ----------------------------------------------------------------------
 # B3LYP/6-311++G(d,p) empiricaldispersion=gd3bj scf=xqc pop=npa geom=c
 heck
 ----------------------------------------------------------------------

 -----------------------------------
 CID_20691484_JID_341_Energie_kation
 -----------------------------------
 Structure from the checkpoint file:  "JID_341.chk"
 Charge =  1 Multiplicity = 2

 SCF Done:  E(UB3LYP) =  -480.858556495     A.U. after   21 cycles
 Normal termination of Gaussian 16 at Tue Dec  8 10:42:17 2020.
 Gaussian 16:  ES64L-G16RevA.03 25-Dec-2016

 ----------------------------------------------------------------------
 # B3LYP/6-311++G(d,p) empiricaldispersion=gd3bj scf=xqc pop=npa geom=c
 heck
 ----------------------------------------------------------------------

 ----------------------------------
 CID_20691484_JID_341_Energie_anion
 ----------------------------------
 Structure from the checkpoint file:  "JID_341.chk"
 Charge = -1 Multiplicity = 2

                         Standard orientation:
 ---------------------------------------------------------------------
 Center     Atomic      Atomic             Coordinates (Angstroms)
 Number     Number       Type             X           Y           Z
 ---------------------------------------------------------------------
      1          6           0       -0.574219    2.190415   -0.321767
      2          6           0       -0.089075    0.750713   -0.565641
      3          6           0        1.359650    0.504778   -0.089097
      4          6           0        1.557404    0.755270    1.416877
      5          7           0        1.790314   -0.816048   -0.554927
      6          6           0        3.226430   -1.046303   -0.497722
      7          6           0       -1.070111   -0.263955    0.004758
      8          8           0       -0.800879   -1.212271    0.717114
      9          8           0       -2.331958   -0.001956   -0.400077
     10          6           0       -3.330890   -0.924694    0.061633
     11          1           0       -0.707506    2.396839    0.744982
     12          1           0       -1.529136    2.368714   -0.820650
     13          1           0        0.160895    2.901723   -0.713576
     14          1           0       -0.087741    0.567836   -1.648516
     15          1           0        1.974941    1.234484   -0.635177
     16          1           0        0.928570    0.081352    2.005464
     17          1           0        2.601148    0.585398    1.699683
     18          1           0        1.312159    1.787427    1.690437
     19          1           0        1.295938   -1.519884   -0.011216
     20          1           0        3.681088   -0.968195    0.506106
     21          1           0        3.443008   -2.047943   -0.883987
     22          1           0        3.736054   -0.323595   -1.147035
     23          1           0       -3.110712   -1.935563   -0.291111
     24          1           0       -3.370537   -0.931893    1.153917
     25          1           0       -4.272803   -0.567891   -0.355375
 ---------------------------------------------------------------------

 SCF Done:  E(UB3LYP) =  -481.147373875     A.U. after   30 cycles

 The electronic state is 2-A.
 Alpha  occ. eigenvalues --  -19.06423 -19.00904 -14.18673 -10.19603 -10.11806
 Alpha  occ. eigenvalues --  -10.09597 -10.08292 -10.08270 -10.05943 -10.04997
 Alpha  occ. eigenvalues --   -1.00559  -0.91728  -0.80091  -0.70076  -0.63508
 Alpha  occ. eigenvalues --   -0.60849  -0.57249  -0.53682  -0.49647  -0.45477
 Alpha  occ. eigenvalues --   -0.39949  -0.38787  -0.37929  -0.37001  -0.35510
 Alpha  occ. eigenvalues --   -0.33682  -0.32892  -0.30740  -0.30243  -0.29217
 Alpha  occ. eigenvalues --   -0.27960  -0.27785  -0.27575  -0.25508  -0.24369
 Alpha  occ. eigenvalues --   -0.23706  -0.22868  -0.20623  -0.17404  -0.12060
 Alpha  occ. eigenvalues --    0.04679
 Alpha virt. eigenvalues --    0.06487   0.07532   0.08361   0.09315   0.09666
 Alpha virt. eigenvalues --    0.10086   0.10330   0.11000   0.11187   0.11893
 Alpha virt. eigenvalues --    0.12929   0.13615   0.13815   0.14613   0.15274

  Beta  occ. eigenvalues --  -19.06412 -19.00872 -14.18668 -10.19581 -10.11757
  Beta  occ. eigenvalues --  -10.09584 -10.08267 -10.08264 -10.05904 -10.04974
  Beta  occ. eigenvalues --   -1.00522  -0.91682  -0.80074  -0.70038  -0.63455
  Beta  occ. eigenvalues --   -0.60788  -0.57194  -0.53605  -0.49585  -0.45434
  Beta  occ. eigenvalues --   -0.39888  -0.38749  -0.37861  -0.36958  -0.35474
  Beta  occ. eigenvalues --   -0.33638  -0.32847  -0.30686  -0.30205  -0.29154
  Beta  occ. eigenvalues --   -0.27911  -0.27745  -0.27537  -0.25459  -0.24332
  Beta  occ. eigenvalues --   -0.23656  -0.22836  -0.20544  -0.17367  -0.12045
  Beta virt. eigenvalues --    0.06892   0.07626   0.08226   0.08852   0.09883
  Beta virt. eigenvalues --    0.10329   0.10650   0.10719   0.11440   0.11719
  Beta virt. eigenvalues --    0.12385   0.13258   0.13908   0.14078   0.14728

 Mulliken charges and spin densities:
               1          2
     1  C    1.187940  -1.867495
     2  C    0.012050   0.720544
     3  C   -0.973243   0.280012
     4  C    0.925966  -1.462536
     5  N   -0.028482   0.020237
     6  C    0.708836  -1.046719
     7  C   -1.119553   0.692712
     8  O   -0.255459   0.016994
     9  O   -0.140949   0.080474
    10  C    1.240781  -1.464171
    11  H   -0.135644   0.303510
    12  H   -0.169494   0.336189
    13  H   -0.315253   0.454358
    14  H   -0.111150   0.379639
    15  H   -0.129850   0.319378
    16  H   -0.025757   0.209586
    17  H   -0.033299   0.158962
    18  H   -0.116435   0.244977
    19  H    0.193940   0.032388
    20  H   -0.130655   0.251850
    21  H   -0.063500   0.185814
    22  H   -0.347146   0.480744
    23  H   -0.216422   0.386619
    24  H   -0.341421   0.519177
    25  H   -0.615799   0.766754
 Sum of Mulliken charges =  -1.00000   1.00000

 Dipole moment (field-independent basis, Debye):
    X=              2.1133    Y=             -1.4640    Z=              0.7167  Tot=              2.6688
 Quadrupole moment (field-independent basis, Debye-Ang):
   XX=           -134.7433   YY=           -101.5288   ZZ=            -95.4017
   XY=             -3.2811   XZ=              1.7755   YZ=              1.8936

 Summary of Natural Population Analysis:

                                       Natural Population
                Natural  -----------------------------------------------
    Atom  No    Charge         Core      Valence    Rydberg      Total
 -----------------------------------------------------------------------
      C    1   -0.28296      0.99965     2.27717    0.00614     3.28296
      C    2   -0.15668      0.99953     2.14426    0.01289     3.15668
      C    3   -0.00526      0.99959     1.99138    0.01429     3.00526
      C    4   -0.30219      0.99964     2.29610    0.00645     3.30219
      N    5   -0.34595      0.99974     2.83464    0.01157     3.84595
      C    6   -0.17610      0.99966     2.16951    0.00693     3.17610
      C    7    0.42330      0.99965     1.55157    0.02547     2.57670
      O    8   -0.31539      0.99987     3.30996    0.00555     4.31539
      O    9   -0.27878      0.99986     3.26905    0.00986     4.27878
      C   10   -0.10354      0.99959     2.09467    0.00928     3.10354
      H   11    0.09916      0.00000     0.39944    0.00140     0.40084
      H   12    0.10887      0.00000     0.38967    0.00146     0.39113
      H   13    0.10097      0.00000     0.39737    0.00166     0.39903
      H   14    0.11870      0.00000     0.37916    0.00213     0.38130
      H   15    0.09232      0.00000     0.40539    0.00230     0.40768
      H   16    0.10520      0.00000     0.39365    0.00115     0.39480
      H   17    0.09936      0.00000     0.39968    0.00097     0.40064
      H   18    0.10034      0.00000     0.39866    0.00100     0.39966
      H   19    0.18229      0.00000     0.31449    0.00322     0.31771
      H   20    0.07697      0.00000     0.42097    0.00206     0.42303
      H   21    0.09225      0.00000     0.40671    0.00105     0.40775
      H   22    0.09036      0.00000     0.40804    0.00160     0.40964
      H   23    0.09013      0.00000     0.40861    0.00125     0.40987
      H   24    0.09228      0.00000     0.40603    0.00169     0.40772
      H   25    0.09434      0.00000     0.40336    0.00230     0.40566
 =======================================================================
   * Total *    0.00000      9.99678    29.86953    0.13369    40.00000

 Normal termination of Gaussian 16 at Tue Dec  8 10:50:18 2020.
