 Gaussian 16, Revision A.03,

 -----------------------------------------------------------
 # opt freq B3LYP/6-31G(d) empiricaldispersion=gd3bj scf=xqc
 -----------------------------------------------------------

 -------------------------------
 CID_118393311_JID_1577_neutraal
 -------------------------------
 Symbolic Z-matrix:
 Charge =  0 Multiplicity = 1

 SCF Done:  E(RB3LYP) =  -444.867823442     A.U. after   14 cycles
 SCF Done:  E(RB3LYP) =  -444.869374263     A.U. after   12 cycles
 SCF Done:  E(RB3LYP) =  -444.869172337     A.U. after   13 cycles
 SCF Done:  E(RB3LYP) =  -444.869674267     A.U. after   12 cycles
 SCF Done:  E(RB3LYP) =  -444.870076331     A.U. after   12 cycles
 SCF Done:  E(RB3LYP) =  -444.870103988     A.U. after   10 cycles
 SCF Done:  E(RB3LYP) =  -444.870109130     A.U. after    9 cycles
 SCF Done:  E(RB3LYP) =  -444.870110036     A.U. after    8 cycles
 SCF Done:  E(RB3LYP) =  -444.870110064     A.U. after    7 cycles
 Optimization completed.
    -- Stationary point found.
 Normal termination of Gaussian 16 at Tue Dec  8 20:25:28 2020.

 --------------------------------------------------------------------
 #N Geom=AllCheck Guess=TCheck SCRF=Check GenChk RB3LYP/6-31G(d) Freq
 --------------------------------------------------------------------

 Structure from the checkpoint file:  "JID_1577.chk"
 -------------------------------
 CID_118393311_JID_1577_neutraal
 -------------------------------
 Charge =  0 Multiplicity = 1

 SCF Done:  E(RB3LYP) =  -444.870110064     A.U. after    1 cycles

  Exact polarizability: 112.213   6.948  94.517   2.104   4.636  95.188
 Approx polarizability: 158.541  19.507 137.517   8.023  12.213 148.245

                      1                      2                      3
                      A                      A                      A
 Frequencies --     72.7320               133.3062               147.4690
 Red. masses --      2.7301                 4.2052                 4.6348
 Frc consts  --      0.0085                 0.0440                 0.0594
 IR Inten    --      0.2567                 4.5761                 3.2821

                      4                      5                      6
                      A                      A                      A
 Frequencies --    164.7646               196.3209               247.1610
 Red. masses --      3.4216                 2.2698                 1.3025
 Frc consts  --      0.0547                 0.0515                 0.0469
 IR Inten    --      2.5736                 0.5036                 0.0373

                      7                      8                      9
                      A                      A                      A
 Frequencies --    271.8494               286.4512               316.7621
 Red. masses --      1.1604                 1.9801                 2.0537
 Frc consts  --      0.0505                 0.0957                 0.1214
 IR Inten    --      0.0427                 0.1396                 0.0583

                     10                     11                     12
                      A                      A                      A
 Frequencies --    354.5031               389.6300               399.1870
 Red. masses --      3.0779                 2.3491                 2.0311
 Frc consts  --      0.2279                 0.2101                 0.1907
 IR Inten    --      0.1450                 0.0634                 0.3639

                     13                     14                     15
                      A                      A                      A
 Frequencies --    426.7359               466.6774               541.2895
 Red. masses --      3.9182                 3.1450                 4.3339
 Frc consts  --      0.4204                 0.4036                 0.7482
 IR Inten    --      0.1397                 0.6023                 0.6131

                     16                     17                     18
                      A                      A                      A
 Frequencies --    558.6055               581.3006               653.4264
 Red. masses --      6.8750                 4.3340                 1.9070
 Frc consts  --      1.2640                 0.8629                 0.4797
 IR Inten    --      0.5767                 0.4054                10.7084

                     19                     20                     21
                      A                      A                      A
 Frequencies --    674.4534               761.5945               851.3603
 Red. masses --      1.7645                 1.8244                 2.0921
 Frc consts  --      0.4729                 0.6235                 0.8934
 IR Inten    --     18.6242                 4.1547                 1.4853

                     22                     23                     24
                      A                      A                      A
 Frequencies --    887.6228               920.9782               943.2925
 Red. masses --      3.5145                 2.3902                 1.4623
 Frc consts  --      1.6315                 1.1945                 0.7666
 IR Inten    --      1.0710                 1.4334                 1.1056

                     25                     26                     27
                      A                      A                      A
 Frequencies --    952.5228               961.6477               982.2355
 Red. masses --      1.6860                 2.2835                 1.4753
 Frc consts  --      0.9013                 1.2442                 0.8386
 IR Inten    --      1.5512                 1.9039                 0.2589

                     28                     29                     30
                      A                      A                      A
 Frequencies --    996.4483              1000.6554              1047.6461
 Red. masses --      1.7399                 1.2028                 2.7682
 Frc consts  --      1.0178                 0.7096                 1.7901
 IR Inten    --      0.5457                 0.1668                 3.3409

                     31                     32                     33
                      A                      A                      A
 Frequencies --   1073.3274              1090.6968              1109.1243
 Red. masses --      1.6921                 2.9496                 2.2379
 Frc consts  --      1.1485                 2.0674                 1.6220
 IR Inten    --      2.5127                 3.3130                 2.2518

                     34                     35                     36
                      A                      A                      A
 Frequencies --   1170.3681              1181.9851              1209.9792
 Red. masses --      1.9674                 1.9497                 1.6645
 Frc consts  --      1.5878                 1.6049                 1.4358
 IR Inten    --      0.4922                 5.7068                 4.8962

                     37                     38                     39
                      A                      A                      A
 Frequencies --   1229.4584              1237.7453              1282.1032
 Red. masses --      1.1434                 1.4134                 1.3046
 Frc consts  --      1.0183                 1.2758                 1.2634
 IR Inten    --      3.0824                 0.7349                 0.9179

                     40                     41                     42
                      A                      A                      A
 Frequencies --   1322.5474              1367.9079              1374.4848
 Red. masses --      1.4216                 1.3197                 1.4505
 Frc consts  --      1.4650                 1.4549                 1.6145
 IR Inten    --      0.8876                 2.6398                 0.8553

                     43                     44                     45
                      A                      A                      A
 Frequencies --   1383.5192              1394.1222              1425.5492
 Red. masses --      1.3442                 1.4637                 1.4642
 Frc consts  --      1.5160                 1.6761                 1.7532
 IR Inten    --      2.9301                 0.6905                 0.9742

                     46                     47                     48
                      A                      A                      A
 Frequencies --   1433.9071              1437.3182              1454.7786
 Red. masses --      1.3189                 1.4439                 1.2267
 Frc consts  --      1.5978                 1.7575                 1.5297
 IR Inten    --      3.0390                 2.7390                 8.3537

                     49                     50                     51
                      A                      A                      A
 Frequencies --   1507.6481              1508.3203              1514.9375
 Red. masses --      1.0863                 1.0711                 1.0479
 Frc consts  --      1.4547                 1.4357                 1.4169
 IR Inten    --      4.7932                 3.1025                 0.8700

                     52                     53                     54
                      A                      A                      A
 Frequencies --   1523.8750              1533.2779              1539.9581
 Red. masses --      1.0780                 1.0546                 1.0498
 Frc consts  --      1.4749                 1.4607                 1.4668
 IR Inten    --      5.1487                 5.4830                11.6360

                     55                     56                     57
                      A                      A                      A
 Frequencies --   1545.0975              1747.4486              2354.1579
 Red. masses --      1.0596                 6.2896                12.7065
 Frc consts  --      1.4904                11.3158                41.4903
 IR Inten    --      6.3032                 2.8510                13.2662

                     58                     59                     60
                      A                      A                      A
 Frequencies --   3027.0389              3031.3209              3035.8340
 Red. masses --      1.0838                 1.0627                 1.0629
 Frc consts  --      5.8512                 5.7536                 5.7715
 IR Inten    --     12.0546                26.0410                22.1520

                     61                     62                     63
                      A                      A                      A
 Frequencies --   3051.1348              3052.5044              3065.0992
 Red. masses --      1.0871                 1.0396                 1.0989
 Frc consts  --      5.9628                 5.7074                 6.0830
 IR Inten    --     14.1834                14.5531                 8.8987

                     64                     65                     66
                      A                      A                      A
 Frequencies --   3065.9028              3070.6190              3114.6420
 Red. masses --      1.0420                 1.0738                 1.1006
 Frc consts  --      5.7710                 5.9652                 6.2908
 IR Inten    --     25.2620                49.8887                28.9588

                     67                     68                     69
                      A                      A                      A
 Frequencies --   3121.3519              3128.2309              3129.5243
 Red. masses --      1.0987                 1.1024                 1.0963
 Frc consts  --      6.3067                 6.3561                 6.3262
 IR Inten    --     16.3147                19.8262                38.9885

                     70                     71                     72
                      A                      A                      A
 Frequencies --   3154.7642              3157.8444              3180.0778
 Red. masses --      1.1019                 1.0844                 1.0968
 Frc consts  --      6.4613                 6.3713                 6.5349
 IR Inten    --     26.2207                 6.0897                40.0423

 - Thermochemistry -
 -------------------
 Temperature   298.150 Kelvin.  Pressure   1.00000 Atm.
 Atom     1 has atomic number  6 and mass  12.00000

 Molecular mass:   149.12045 amu.
 Principal axes and moments of inertia in atomic units:
                           1         2         3
     Eigenvalues --  1242.787561788.432972150.79214
           X            0.99704  -0.07677  -0.00471
           Y            0.07679   0.99704   0.00371
           Z            0.00441  -0.00407   0.99998
 This molecule is an asymmetric top.
 Rotational symmetry number  1.
 Warning -- assumption of classical behavior for rotation
           may cause significant error
 Rotational temperatures (Kelvin)      0.06969     0.04843     0.04027
 Rotational constants (GHZ):           1.45217     1.00912     0.83911
 Zero-point vibrational energy     607273.3 (Joules/Mol)
                                  145.14179 (Kcal/Mol)
 Warning -- explicit consideration of  17 degrees of freedom as
           vibrations may cause significant error
 Vibrational temperatures:    104.65   191.80   212.17   237.06   282.46
          (Kelvin)            355.61   391.13   412.14   455.75   510.05
                              560.59   574.34   613.98   671.44   778.79
                              803.71   836.36   940.13   970.39  1095.76
                             1224.92  1277.09  1325.08  1357.19  1370.47
                             1383.60  1413.22  1433.67  1439.72  1507.33
                             1544.28  1569.27  1595.78  1683.90  1700.61
                             1740.89  1768.92  1780.84  1844.66  1902.85
                             1968.11  1977.58  1990.58  2005.83  2051.05
                             2063.07  2067.98  2093.10  2169.17  2170.14
                             2179.66  2192.52  2206.04  2215.66  2223.05
                             2514.19  3387.11  4355.23  4361.39  4367.89
                             4389.90  4391.87  4409.99  4411.15  4417.94
                             4481.28  4490.93  4500.83  4502.69  4539.00
                             4543.43  4575.42

 Zero-point correction=                           0.231298 (Hartree/Particle)
 Thermal correction to Energy=                    0.242346
 Thermal correction to Enthalpy=                  0.243290
 Thermal correction to Gibbs Free Energy=         0.195576
 Sum of electronic and zero-point Energies=           -444.638812
 Sum of electronic and thermal Energies=              -444.627764
 Sum of electronic and thermal Enthalpies=            -444.626820
 Sum of electronic and thermal Free Energies=         -444.674534

                     E (Thermal)             CV                S
                      KCal/Mol        Cal/Mol-Kelvin    Cal/Mol-Kelvin
 Total                  152.074             43.299            100.423
 Electronic               0.000              0.000              0.000
 Translational            0.889              2.981             40.909
 Rotational               0.889              2.981             29.948
 Vibrational            150.297             37.337             29.566
 Vibration     1          0.599              1.967              4.078
 Vibration     2          0.613              1.920              2.898
 Vibration     3          0.617              1.905              2.705
 Vibration     4          0.623              1.886              2.494
 Vibration     5          0.636              1.845              2.167
 Vibration     6          0.661              1.767              1.751
 Vibration     7          0.675              1.725              1.584
 Vibration     8          0.684              1.699              1.495
 Vibration     9          0.704              1.642              1.327
 Vibration    10          0.730              1.566              1.146
 Vibration    11          0.758              1.492              1.002
 Vibration    12          0.765              1.472              0.966
 Vibration    13          0.788              1.412              0.869
 Vibration    14          0.824              1.324              0.747
 Vibration    15          0.896              1.159              0.563
 Vibration    16          0.914              1.121              0.527
 Vibration    17          0.938              1.072              0.483

 Optimization completed.
    -- Stationary point found.
 Normal termination of Gaussian 16 at Tue Dec  8 20:32:25 2020.

 ----------------------------------------------------------------------
 # B3LYP/6-311++G(d,p) empiricaldispersion=gd3bj scf=xqc pop=npa geom=c
 heck
 ----------------------------------------------------------------------

 ---------------------------------------
 CID_118393311_JID_1577_Energie_neutraal
 ---------------------------------------
 Structure from the checkpoint file:  "JID_1577.chk"
 Charge =  0 Multiplicity = 1

 SCF Done:  E(RB3LYP) =  -444.991615862     A.U. after   14 cycles
 Normal termination of Gaussian 16 at Tue Dec  8 20:35:56 2020.

 ----------------------------------------------------------------------
 # B3LYP/6-311++G(d,p) empiricaldispersion=gd3bj scf=xqc pop=npa geom=c
 heck
 ----------------------------------------------------------------------

 -------------------------------------
 CID_118393311_JID_1577_Energie_kation
 -------------------------------------
 Structure from the checkpoint file:  "JID_1577.chk"
 Charge =  1 Multiplicity = 2

 SCF Done:  E(UB3LYP) =  -444.651339930     A.U. after   19 cycles
 Normal termination of Gaussian 16 at Tue Dec  8 20:42:32 2020.
 Gaussian 16:  ES64L-G16RevA.03 25-Dec-2016

 ----------------------------------------------------------------------
 # B3LYP/6-311++G(d,p) empiricaldispersion=gd3bj scf=xqc pop=npa geom=c
 heck
 ----------------------------------------------------------------------

 ------------------------------------
 CID_118393311_JID_1577_Energie_anion
 ------------------------------------
 Structure from the checkpoint file:  "JID_1577.chk"
 Charge = -1 Multiplicity = 2

                         Standard orientation:
 ---------------------------------------------------------------------
 Center     Atomic      Atomic             Coordinates (Angstroms)
 Number     Number       Type             X           Y           Z
 ---------------------------------------------------------------------
      1          6           0       -1.737090    1.709090    0.579808
      2          6           0       -0.884697    1.040482   -0.506480
      3          6           0        0.231314    1.987047   -0.969571
      4          6           0       -0.426699   -0.406148   -0.086299
      5          6           0        0.219094   -0.524804    1.323224
      6          6           0        1.608797    0.113291    1.423127
      7          6           0        2.467130   -0.212712    0.232669
      8          6           0        1.981383   -0.728928   -0.898053
      9          6           0        0.527608   -1.043752   -1.136430
     10          6           0       -1.656994   -1.219892   -0.054039
     11          7           0       -2.627145   -1.857485   -0.025853
     12          1           0       -1.130026    1.993281    1.446946
     13          1           0       -2.542877    1.052972    0.924764
     14          1           0       -2.194050    2.623559    0.187287
     15          1           0       -1.534037    0.878615   -1.377864
     16          1           0        0.900702    2.271982   -0.153995
     17          1           0        0.840445    1.558605   -1.768510
     18          1           0       -0.226047    2.905717   -1.354231
     19          1           0       -0.453785   -0.109873    2.078343
     20          1           0        0.312045   -1.594530    1.543596
     21          1           0        1.532228    1.202664    1.545653
     22          1           0        2.095754   -0.246563    2.339388
     23          1           0        3.533067   -0.008871    0.315785
     24          1           0        2.657532   -0.957986   -1.719986
     25          1           0        0.392547   -2.133965   -1.134078
     26          1           0        0.227445   -0.715248   -2.139861
 ---------------------------------------------------------------------

 SCF Done:  E(UB3LYP) =  -444.979610939     A.U. after   30 cycles

 The electronic state is 2-A.
 Alpha  occ. eigenvalues --  -14.21090 -10.12523 -10.10821 -10.09016 -10.08438
 Alpha  occ. eigenvalues --  -10.07973 -10.07239 -10.06796 -10.06574 -10.06290
 Alpha  occ. eigenvalues --  -10.05705  -0.81188  -0.75970  -0.69987  -0.65594
 Alpha  occ. eigenvalues --   -0.65230  -0.58902  -0.55055  -0.52896  -0.47925
 Alpha  occ. eigenvalues --   -0.42632  -0.41428  -0.38598  -0.36343  -0.33980
 Alpha  occ. eigenvalues --   -0.33279  -0.32746  -0.31142  -0.29897  -0.29379
 Alpha  occ. eigenvalues --   -0.28921  -0.27312  -0.27104  -0.26697  -0.24837
 Alpha  occ. eigenvalues --   -0.24454  -0.23183  -0.22927  -0.21280  -0.20971
 Alpha  occ. eigenvalues --   -0.14770   0.04399
 Alpha virt. eigenvalues --    0.06992   0.07332   0.08204   0.09179   0.09512
 Alpha virt. eigenvalues --    0.10085   0.10576   0.10797   0.11138   0.12184
 Alpha virt. eigenvalues --    0.12829   0.12910   0.13052   0.13405   0.14097

  Beta  occ. eigenvalues --  -14.21084 -10.12522 -10.10817 -10.09006 -10.08418
  Beta  occ. eigenvalues --  -10.07951 -10.07206 -10.06775 -10.06556 -10.06260
  Beta  occ. eigenvalues --  -10.05667  -0.81172  -0.75940  -0.69945  -0.65549
  Beta  occ. eigenvalues --   -0.65180  -0.58837  -0.55005  -0.52820  -0.47863
  Beta  occ. eigenvalues --   -0.42567  -0.41381  -0.38543  -0.36300  -0.33931
  Beta  occ. eigenvalues --   -0.33243  -0.32706  -0.31106  -0.29856  -0.29340
  Beta  occ. eigenvalues --   -0.28874  -0.27283  -0.27088  -0.26655  -0.24805
  Beta  occ. eigenvalues --   -0.24422  -0.23146  -0.22884  -0.21252  -0.20938
  Beta  occ. eigenvalues --   -0.14731
  Beta virt. eigenvalues --    0.06787   0.07940   0.08322   0.08781   0.09888
  Beta virt. eigenvalues --    0.10220   0.10376   0.11056   0.11169   0.11446
  Beta virt. eigenvalues --    0.12408   0.12982   0.13315   0.13410   0.13696

 Mulliken charges and spin densities:
               1          2
     1  C    0.489946  -1.203888
     2  C   -2.278093   2.095937
     3  C    1.189440  -1.703178
     4  C    1.055141   1.046797
     5  C    0.123332  -0.821427
     6  C    0.142110  -0.672103
     7  C    0.950919  -1.102755
     8  C   -0.181901   0.160245
     9  C    0.590281  -1.460198
    10  C    0.128052  -0.906713
    11  N   -0.255623   0.007538
    12  H   -0.235853   0.390492
    13  H    0.085228   0.091484
    14  H   -0.121505   0.262108
    15  H   -0.155415   0.373997
    16  H   -0.047596   0.187320
    17  H   -0.213607   0.365779
    18  H   -0.206680   0.357583
    19  H    0.097165   0.080114
    20  H   -0.034078   0.218667
    21  H    0.018403   0.132698
    22  H   -0.475200   0.658896
    23  H   -0.843570   1.038345
    24  H   -0.837709   1.037260
    25  H   -0.086039   0.274238
    26  H    0.102853   0.090764
 Sum of Mulliken charges =  -1.00000   1.00000

 Dipole moment (field-independent basis, Debye):
    X=             -2.8920    Y=             -0.1191    Z=              0.5562  Tot=              2.9474
 Quadrupole moment (field-independent basis, Debye-Ang):
   XX=           -131.5971   YY=           -111.3866   ZZ=           -108.3592
   XY=             -2.2365   XZ=              0.2963   YZ=              1.4900

 Summary of Natural Population Analysis:

                                       Natural Population
                Natural  -----------------------------------------------
    Atom  No    Charge         Core      Valence    Rydberg      Total
 -----------------------------------------------------------------------
      C    1   -0.28874      0.99964     2.28264    0.00646     3.28874
      C    2   -0.10274      0.99958     2.09149    0.01166     3.10274
      C    3   -0.28510      0.99964     2.27903    0.00643     3.28510
      C    4   -0.08241      0.99946     2.06896    0.01398     3.08241
      C    5   -0.18246      0.99960     2.17216    0.01070     3.18246
      C    6   -0.20920      0.99961     2.19983    0.00977     3.20920
      C    7   -0.08813      0.99951     2.07807    0.01054     3.08813
      C    8   -0.09561      0.99952     2.08470    0.01140     3.09561
      C    9   -0.20023      0.99958     2.18916    0.01149     3.20023
      C   10    0.17769      0.99962     1.80081    0.02188     2.82231
      N   11   -0.19392      0.99978     2.68252    0.01161     3.69392
      H   12    0.09892      0.00000     0.39997    0.00111     0.40108
      H   13    0.10324      0.00000     0.39579    0.00097     0.39676
      H   14    0.10290      0.00000     0.39623    0.00087     0.39710
      H   15    0.09768      0.00000     0.40019    0.00213     0.40232
      H   16    0.09927      0.00000     0.39922    0.00150     0.40073
      H   17    0.10563      0.00000     0.39287    0.00151     0.39437
      H   18    0.10159      0.00000     0.39721    0.00120     0.39841
      H   19    0.10632      0.00000     0.39221    0.00148     0.39368
      H   20    0.10304      0.00000     0.39536    0.00161     0.39696
      H   21    0.10304      0.00000     0.39509    0.00186     0.39696
      H   22    0.10798      0.00000     0.39024    0.00179     0.39202
      H   23    0.10112      0.00000     0.39658    0.00230     0.39888
      H   24    0.10239      0.00000     0.39545    0.00216     0.39761
      H   25    0.11011      0.00000     0.38839    0.00150     0.38989
      H   26    0.10763      0.00000     0.39072    0.00165     0.39237
 =======================================================================
   * Total *   -0.00000     10.99555    29.85491    0.14955    41.00000

 Normal termination of Gaussian 16 at Tue Dec  8 20:52:11 2020.
