 Gaussian 16, Revision A.03,

 -----------------------------------------------------------
 # opt freq B3LYP/6-31G(d) empiricaldispersion=gd3bj scf=xqc
 -----------------------------------------------------------

 ------------------------------
 CID_83530984_JID_4969_neutraal
 ------------------------------
 Symbolic Z-matrix:
 Charge =  0 Multiplicity = 1

 SCF Done:  E(RB3LYP) =  -668.118711009     A.U. after   15 cycles
 SCF Done:  E(RB3LYP) =  -668.132916347     A.U. after   15 cycles
 SCF Done:  E(RB3LYP) =  -668.135723841     A.U. after   15 cycles
 SCF Done:  E(RB3LYP) =  -668.137525345     A.U. after   15 cycles
 SCF Done:  E(RB3LYP) =  -668.140209709     A.U. after   13 cycles
 SCF Done:  E(RB3LYP) =  -668.141944684     A.U. after   13 cycles
 SCF Done:  E(RB3LYP) =  -668.142100874     A.U. after   14 cycles
 SCF Done:  E(RB3LYP) =  -668.142413815     A.U. after   12 cycles
 SCF Done:  E(RB3LYP) =  -668.142526276     A.U. after   11 cycles
 SCF Done:  E(RB3LYP) =  -668.142540968     A.U. after   10 cycles
 SCF Done:  E(RB3LYP) =  -668.142544497     A.U. after    9 cycles
 SCF Done:  E(RB3LYP) =  -668.142545846     A.U. after    8 cycles
 SCF Done:  E(RB3LYP) =  -668.142546157     A.U. after    7 cycles
 SCF Done:  E(RB3LYP) =  -668.142546775     A.U. after    7 cycles
 SCF Done:  E(RB3LYP) =  -668.142547130     A.U. after    7 cycles
 Optimization completed.
    -- Stationary point found.
 Normal termination of Gaussian 16 at Thu Dec 10 11:02:35 2020.

 --------------------------------------------------------------------
 #N Geom=AllCheck Guess=TCheck SCRF=Check GenChk RB3LYP/6-31G(d) Freq
 --------------------------------------------------------------------

 Structure from the checkpoint file:  "JID_4969.chk"
 ------------------------------
 CID_83530984_JID_4969_neutraal
 ------------------------------
 Charge =  0 Multiplicity = 1

 SCF Done:  E(RB3LYP) =  -668.142547130     A.U. after    1 cycles

  Exact polarizability: 174.678   4.815 136.741   0.006   0.005  60.117
 Approx polarizability: 273.249  26.305 207.777   0.025   0.024  89.447

                      1                      2                      3
                      A                      A                      A
 Frequencies --     49.5991                77.2276                85.0502
 Red. masses --      4.9789                 3.5088                 3.3994
 Frc consts  --      0.0072                 0.0123                 0.0145
 IR Inten    --      0.0574                 3.4112                 4.3518

                      4                      5                      6
                      A                      A                      A
 Frequencies --     89.1057               111.2554               156.7206
 Red. masses --      8.8518                 1.0439                 5.8231
 Frc consts  --      0.0414                 0.0076                 0.0843
 IR Inten    --      1.3672                 0.0154                 0.3370

                      7                      8                      9
                      A                      A                      A
 Frequencies --    178.6800               193.9528               221.8459
 Red. masses --      3.2238                 2.1153                 2.2740
 Frc consts  --      0.0606                 0.0469                 0.0659
 IR Inten    --      0.2200                 1.4995                 0.0122

                     10                     11                     12
                      A                      A                      A
 Frequencies --    251.6281               259.8378               292.9207
 Red. masses --      3.0107                 1.1202                 1.8659
 Frc consts  --      0.1123                 0.0446                 0.0943
 IR Inten    --      3.9563                 0.0259                 1.1964

                     13                     14                     15
                      A                      A                      A
 Frequencies --    298.3909               336.7752               384.7898
 Red. masses --      5.6755                 4.1140                 6.5500
 Frc consts  --      0.2977                 0.2749                 0.5714
 IR Inten    --      1.6230                 2.2444                 0.0062

                     16                     17                     18
                      A                      A                      A
 Frequencies --    409.8949               461.0997               540.3408
 Red. masses --      6.2233                 4.7050                 6.8586
 Frc consts  --      0.6160                 0.5894                 1.1798
 IR Inten    --      6.2812                 6.2822                 3.9673

                     19                     20                     21
                      A                      A                      A
 Frequencies --    542.2153               555.5449               599.3266
 Red. masses --     11.9706                 3.5017                 5.1603
 Frc consts  --      2.0735                 0.6367                 1.0921
 IR Inten    --     17.0248                 2.3586                 8.9424

                     22                     23                     24
                      A                      A                      A
 Frequencies --    613.1492               631.1852               638.4608
 Red. masses --      4.6508                 6.1409                 3.7888
 Frc consts  --      1.0302                 1.4414                 0.9100
 IR Inten    --     16.9693                19.3471                 0.9209

                     25                     26                     27
                      A                      A                      A
 Frequencies --    714.3001               775.6855               806.6553
 Red. masses --      4.3271                 6.2205                 1.5599
 Frc consts  --      1.3008                 2.2052                 0.5980
 IR Inten    --      0.2962                14.3880                24.6935

                     28                     29                     30
                      A                      A                      A
 Frequencies --    858.2558               971.7301               982.6936
 Red. masses --      1.3796                 4.2881                 5.4275
 Frc consts  --      0.5987                 2.3857                 3.0881
 IR Inten    --     21.8146                11.7622                11.7302

                     31                     32                     33
                      A                      A                      A
 Frequencies --   1039.1026              1074.8978              1096.9859
 Red. masses --      1.8461                 1.4933                 2.7734
 Frc consts  --      1.1744                 1.0166                 1.9664
 IR Inten    --      4.6826                 2.3774                69.6983

                     34                     35                     36
                      A                      A                      A
 Frequencies --   1145.9088              1163.8939              1186.3889
 Red. masses --      6.3384                 5.0655                 1.2704
 Frc consts  --      4.9038                 4.0430                 1.0536
 IR Inten    --    104.6758                28.5122                 0.5465

                     37                     38                     39
                      A                      A                      A
 Frequencies --   1186.9320              1208.9620              1223.4753
 Red. masses --      1.2671                 1.6011                 1.3885
 Frc consts  --      1.0517                 1.3788                 1.2246
 IR Inten    --      0.9417                89.6152                 9.7059

                     40                     41                     42
                      A                      A                      A
 Frequencies --   1241.9378              1278.4586              1360.0480
 Red. masses --      2.0035                 1.4778                 8.0280
 Frc consts  --      1.8207                 1.4231                 8.7491
 IR Inten    --    143.4826                27.8022                 4.5830

                     43                     44                     45
                      A                      A                      A
 Frequencies --   1381.6318              1443.8385              1463.8319
 Red. masses --      5.5737                 1.2633                 3.6216
 Frc consts  --      6.2688                 1.5516                 4.5722
 IR Inten    --    237.0204                 1.2551                29.4618

                     46                     47                     48
                      A                      A                      A
 Frequencies --   1480.7304              1500.0526              1508.8434
 Red. masses --      1.9334                 1.2402                 1.0440
 Frc consts  --      2.4976                 1.6442                 1.4004
 IR Inten    --     24.0913                11.8690                 6.5437

                     49                     50                     51
                      A                      A                      A
 Frequencies --   1517.0433              1520.0561              1521.8220
 Red. masses --      1.4444                 1.0479                 1.0479
 Frc consts  --      1.9586                 1.4266                 1.4299
 IR Inten    --      9.8519                 0.1999                12.2236

                     52                     53                     54
                      A                      A                      A
 Frequencies --   1526.9953              1534.0535              1537.7170
 Red. masses --      1.4027                 1.1109                 1.1117
 Frc consts  --      1.9271                 1.5404                 1.5487
 IR Inten    --     27.3866                28.0788                40.5669

                     55                     56                     57
                      A                      A                      A
 Frequencies --   1569.6795              1641.2980              1669.2022
 Red. masses --      3.8563                 7.5113                 6.3300
 Frc consts  --      5.5981                11.9218                10.3913
 IR Inten    --    132.9753                59.3034               107.7628

                     58                     59                     60
                      A                      A                      A
 Frequencies --   2358.1988              3021.8787              3032.0086
 Red. masses --     12.7054                 1.0352                 1.0344
 Frc consts  --     41.6292                 5.5697                 5.6029
 IR Inten    --   1409.9938                49.9955                54.2512

                     61                     62                     63
                      A                      A                      A
 Frequencies --   3054.6059              3079.2305              3093.2945
 Red. masses --      1.0365                 1.1065                 1.1070
 Frc consts  --      5.6978                 6.1814                 6.2408
 IR Inten    --     21.1164                43.4478                39.2738

                     64                     65                     66
                      A                      A                      A
 Frequencies --   3108.6420              3139.0017              3159.4367
 Red. masses --      1.1004                 1.1026                 1.0991
 Frc consts  --      6.2655                 6.4010                 6.4641
 IR Inten    --     14.1043                18.6899                27.4762

                     67                     68                     69
                      A                      A                      A
 Frequencies --   3168.7522              3216.5071              3260.2988
 Red. masses --      1.1002                 1.0909                 1.0887
 Frc consts  --      6.5089                 6.6495                 6.8183
 IR Inten    --     15.6425                 5.5099                 3.7722

 - Thermochemistry -
 -------------------
 Temperature   298.150 Kelvin.  Pressure   1.00000 Atm.
 Atom     1 has atomic number  6 and mass  12.00000

 Molecular mass:   193.07389 amu.
 Principal axes and moments of inertia in atomic units:
                           1         2         3
     Eigenvalues --  1702.666433662.312395330.78907
           X            0.99961  -0.02775  -0.00001
           Y            0.02775   0.99961  -0.00001
           Z            0.00001   0.00001   1.00000
 This molecule is an asymmetric top.
 Rotational symmetry number  1.
 Warning -- assumption of classical behavior for rotation
           may cause significant error
 Rotational temperatures (Kelvin)      0.05087     0.02365     0.01625
 Rotational constants (GHZ):           1.05995     0.49279     0.33855
 Zero-point vibrational energy     519203.0 (Joules/Mol)
                                  124.09249 (Kcal/Mol)
 Warning -- explicit consideration of  22 degrees of freedom as
           vibrations may cause significant error
 Vibrational temperatures:     71.36   111.11   122.37   128.20   160.07
          (Kelvin)            225.49   257.08   279.05   319.19   362.04
                              373.85   421.45   429.32   484.54   553.63
                              589.75   663.42   777.43   780.13   799.31
                              862.30   882.18   908.13   918.60  1027.72
                             1116.04  1160.60  1234.84  1398.10  1413.88
                             1495.04  1546.54  1578.32  1648.71  1674.58
                             1706.95  1707.73  1739.43  1760.31  1786.87
                             1839.42  1956.81  1987.86  2077.36  2106.13
                             2130.44  2158.24  2170.89  2182.69  2187.02
                             2189.56  2197.01  2207.16  2212.43  2258.42
                             2361.46  2401.61  3392.92  4347.81  4362.38
                             4394.90  4430.33  4450.56  4472.64  4516.32
                             4545.72  4559.13  4627.84  4690.84

 Zero-point correction=                           0.197754 (Hartree/Particle)
 Thermal correction to Energy=                    0.211705
 Thermal correction to Enthalpy=                  0.212649
 Thermal correction to Gibbs Free Energy=         0.156842
 Sum of electronic and zero-point Energies=           -667.944793
 Sum of electronic and thermal Energies=              -667.930842
 Sum of electronic and thermal Enthalpies=            -667.929898
 Sum of electronic and thermal Free Energies=         -667.985705

                     E (Thermal)             CV                S
                      KCal/Mol        Cal/Mol-Kelvin    Cal/Mol-Kelvin
 Total                  132.847             50.584            117.456
 Electronic               0.000              0.000              0.000
 Translational            0.889              2.981             41.679
 Rotational               0.889              2.981             31.875
 Vibrational            131.069             44.622             43.902
 Vibration     1          0.595              1.978              4.833
 Vibration     2          0.599              1.964              3.960
 Vibration     3          0.601              1.960              3.771
 Vibration     4          0.602              1.957              3.680
 Vibration     5          0.607              1.940              3.247
 Vibration     6          0.620              1.895              2.589
 Vibration     7          0.629              1.869              2.342
 Vibration     8          0.635              1.848              2.190
 Vibration     9          0.648              1.808              1.944
 Vibration    10          0.664              1.760              1.719
 Vibration    11          0.668              1.746              1.663
 Vibration    12          0.688              1.687              1.457
 Vibration    13          0.691              1.677              1.426
 Vibration    14          0.717              1.602              1.227
 Vibration    15          0.754              1.503              1.020
 Vibration    16          0.774              1.449              0.927
 Vibration    17          0.819              1.336              0.763
 Vibration    18          0.895              1.161              0.565
 Vibration    19          0.897              1.157              0.561
 Vibration    20          0.911              1.128              0.533
 Vibration    21          0.957              1.033              0.451
 Vibration    22          0.972              1.004              0.428

                           ! Non-Optimized Parameters !
 Normal termination of Gaussian 16 at Thu Dec 10 11:09:39 2020.

 ----------------------------------------------------------------------
 # B3LYP/6-311++G(d,p) empiricaldispersion=gd3bj scf=xqc pop=npa geom=c
 heck
 ----------------------------------------------------------------------

 --------------------------------------
 CID_83530984_JID_4969_Energie_neutraal
 --------------------------------------
 Structure from the checkpoint file:  "JID_4969.chk"
 Charge =  0 Multiplicity = 1

 SCF Done:  E(RB3LYP) =  -668.330014929     A.U. after   16 cycles
 Normal termination of Gaussian 16 at Thu Dec 10 11:12:14 2020.

 ----------------------------------------------------------------------
 # B3LYP/6-311++G(d,p) empiricaldispersion=gd3bj scf=xqc pop=npa geom=c
 heck
 ----------------------------------------------------------------------

 ------------------------------------
 CID_83530984_JID_4969_Energie_kation
 ------------------------------------
 Structure from the checkpoint file:  "JID_4969.chk"
 Charge =  1 Multiplicity = 2

 SCF Done:  E(UB3LYP) =  -668.054211871     A.U. after   22 cycles
 Normal termination of Gaussian 16 at Thu Dec 10 11:16:40 2020.
 Gaussian 16:  ES64L-G16RevA.03 25-Dec-2016

 ----------------------------------------------------------------------
 # B3LYP/6-311++G(d,p) empiricaldispersion=gd3bj scf=xqc pop=npa geom=c
 heck
 ----------------------------------------------------------------------

 -----------------------------------
 CID_83530984_JID_4969_Energie_anion
 -----------------------------------
 Structure from the checkpoint file:  "JID_4969.chk"
 Charge = -1 Multiplicity = 2

                         Standard orientation:
 ---------------------------------------------------------------------
 Center     Atomic      Atomic             Coordinates (Angstroms)
 Number     Number       Type             X           Y           Z
 ---------------------------------------------------------------------
      1          6           0        0.615826   -3.141619   -0.000380
      2          6           0       -0.013080   -1.773502   -0.000249
      3          6           0       -1.396736   -1.613664   -0.000113
      4          6           0       -1.971915   -0.339600    0.000045
      5          6           0       -1.164212    0.803719    0.000137
      6          6           0        0.224035    0.648086    0.000040
      7          6           0        0.804486   -0.632858   -0.000151
      8          7           0        2.192986   -0.784140   -0.000397
      9          6           0        3.145995   -0.031090    0.000508
     10          8           0        4.171340    0.548637    0.000937
     11          8           0        1.112482    1.681024    0.000122
     12          6           0        0.613855    3.008692   -0.001044
     13          8           0       -3.336665   -0.304150    0.000033
     14          6           0       -3.972080    0.961569    0.000648
     15          1           0       -0.148650   -3.923250   -0.001474
     16          1           0        1.256458   -3.280607   -0.878610
     17          1           0        1.254790   -3.281520    0.878940
     18          1           0       -2.052747   -2.477455   -0.000160
     19          1           0       -1.599464    1.792495    0.000304
     20          1           0        0.011554    3.208115    0.894322
     21          1           0        1.491748    3.655853   -0.001647
     22          1           0        0.011458    3.206503   -0.896695
     23          1           0       -3.712766    1.543018    0.895664
     24          1           0       -3.713117    1.543724   -0.894012
     25          1           0       -5.044461    0.759626    0.000765
 ---------------------------------------------------------------------

 SCF Done:  E(UB3LYP) =  -668.319844198     A.U. after   32 cycles

 The electronic state is 2-A.
 Alpha  occ. eigenvalues --  -19.08080 -19.06992 -19.05827 -14.25487 -10.21967
 Alpha  occ. eigenvalues --  -10.15175 -10.14516 -10.12762 -10.12419 -10.11678
 Alpha  occ. eigenvalues --  -10.10112 -10.08722 -10.08003 -10.07493  -1.01628
 Alpha  occ. eigenvalues --   -0.98672  -0.97416  -0.87632  -0.76912  -0.69235
 Alpha  occ. eigenvalues --   -0.67830  -0.62505  -0.61400  -0.59740  -0.53178
 Alpha  occ. eigenvalues --   -0.50001  -0.47398  -0.43975  -0.43025  -0.41876
 Alpha  occ. eigenvalues --   -0.40094  -0.38776  -0.37194  -0.36839  -0.36444
 Alpha  occ. eigenvalues --   -0.35143  -0.34598  -0.33951  -0.33143  -0.31805
 Alpha  occ. eigenvalues --   -0.29443  -0.29384  -0.28284  -0.26001  -0.25762
 Alpha  occ. eigenvalues --   -0.24045  -0.23835  -0.22212  -0.19624  -0.14905
 Alpha  occ. eigenvalues --   -0.11489   0.04336
 Alpha virt. eigenvalues --    0.06284   0.07152   0.07722   0.08502   0.08696
 Alpha virt. eigenvalues --    0.09240   0.09264   0.09796   0.10690   0.10710
 Alpha virt. eigenvalues --    0.11565   0.12191   0.12447   0.12704   0.13597

  Beta  occ. eigenvalues --  -19.08076 -19.06982 -19.05817 -14.25486 -10.21965
  Beta  occ. eigenvalues --  -10.15176 -10.14517 -10.12762 -10.12353 -10.11610
  Beta  occ. eigenvalues --  -10.10112 -10.08715 -10.07980 -10.07491  -1.01619
  Beta  occ. eigenvalues --   -0.98654  -0.97395  -0.87628  -0.76905  -0.69221
  Beta  occ. eigenvalues --   -0.67808  -0.62438  -0.61357  -0.59690  -0.53132
  Beta  occ. eigenvalues --   -0.49951  -0.47377  -0.43927  -0.42988  -0.41869
  Beta  occ. eigenvalues --   -0.40052  -0.38755  -0.37170  -0.36801  -0.36424
  Beta  occ. eigenvalues --   -0.35096  -0.34566  -0.33941  -0.33099  -0.31778
  Beta  occ. eigenvalues --   -0.29431  -0.29358  -0.28263  -0.25973  -0.25705
  Beta  occ. eigenvalues --   -0.23998  -0.23814  -0.22205  -0.19606  -0.14891
  Beta  occ. eigenvalues --   -0.11481
  Beta virt. eigenvalues --    0.06173   0.07473   0.07733   0.07968   0.08477
  Beta virt. eigenvalues --    0.08948   0.09541   0.10154   0.10359   0.10786
  Beta virt. eigenvalues --    0.11170   0.11794   0.12553   0.12921   0.13321

 Mulliken charges and spin densities:
               1          2
     1  C    0.125746  -0.568241
     2  C    1.049993   0.077626
     3  C   -0.352036  -0.490515
     4  C   -0.897790   0.137224
     5  C   -1.041763   2.362417
     6  C   -0.044167  -1.006304
     7  C    0.567227  -0.879818
     8  N   -0.129085   0.019434
     9  C    0.507039  -0.065288
    10  O   -0.277267   0.000512
    11  O   -0.267753   0.079370
    12  C    1.162760  -1.467772
    13  O   -0.229103   0.081236
    14  C    1.118990  -1.449551
    15  H    0.086123   0.056502
    16  H    0.095679   0.073617
    17  H    0.095619   0.073731
    18  H   -0.014925   0.167807
    19  H    1.049891  -0.863121
    20  H   -0.672466   0.847068
    21  H   -0.332431   0.517068
    22  H   -0.671654   0.846204
    23  H   -0.595509   0.765004
    24  H   -0.595792   0.765294
    25  H   -0.737327   0.920497
 Sum of Mulliken charges =  -1.00000   1.00000

 Dipole moment (field-independent basis, Debye):
    X=              6.0155    Y=             -8.7803    Z=             -0.0001  Tot=             10.6433
 Quadrupole moment (field-independent basis, Debye-Ang):
   XX=           -162.8125   YY=           -138.1384   ZZ=           -109.8593
   XY=             11.7102   XZ=              0.0022   YZ=             -0.0006

 Summary of Natural Population Analysis:

                                       Natural Population
                Natural  -----------------------------------------------
    Atom  No    Charge         Core      Valence    Rydberg      Total
 -----------------------------------------------------------------------
      C    1   -0.29169      0.99964     2.28721    0.00485     3.29169
      C    2   -0.00398      0.99950     1.99686    0.00762     3.00398
      C    3   -0.13328      0.99948     2.12500    0.00879     3.13328
      C    4    0.17503      0.99939     1.81130    0.01428     2.82497
      C    5   -0.18134      0.99948     2.17413    0.00773     3.18134
      C    6    0.17290      0.99937     1.81463    0.01310     2.82710
      C    7    0.02663      0.99935     1.96256    0.01146     2.97337
      N    8   -0.27375      0.99949     2.76583    0.00844     3.77375
      C    9    0.43189      0.99961     1.55038    0.01812     2.56811
      O   10   -0.26183      0.99987     3.25437    0.00760     4.26183
      O   11   -0.27276      0.99985     3.26301    0.00989     4.27276
      C   12   -0.09998      0.99960     2.09121    0.00917     3.09998
      O   13   -0.27127      0.99986     3.26138    0.01003     4.27127
      C   14   -0.10178      0.99960     2.09282    0.00936     3.10178
      H   15    0.10036      0.00000     0.39878    0.00085     0.39964
      H   16    0.10585      0.00000     0.39286    0.00130     0.39415
      H   17    0.10583      0.00000     0.39287    0.00130     0.39417
      H   18    0.10426      0.00000     0.39435    0.00139     0.39574
      H   19    0.11961      0.00000     0.37762    0.00276     0.38039
      H   20    0.09062      0.00000     0.40656    0.00281     0.40938
      H   21    0.09558      0.00000     0.40304    0.00138     0.40442
      H   22    0.09062      0.00000     0.40656    0.00281     0.40938
      H   23    0.08867      0.00000     0.40832    0.00301     0.41133
      H   24    0.08867      0.00000     0.40832    0.00301     0.41133
      H   25    0.09512      0.00000     0.40306    0.00183     0.40488
 =======================================================================
   * Total *    0.00000     13.99409    36.84303    0.16288    51.00000

 Normal termination of Gaussian 16 at Thu Dec 10 11:23:11 2020.
