 Gaussian 16, Revision A.03,

 -----------------------------------------------------------
 # opt freq B3LYP/6-31G(d) empiricaldispersion=gd3bj scf=xqc
 -----------------------------------------------------------

 ------------------------------
 CID_13129478_JID_3271_neutraal
 ------------------------------
 Symbolic Z-matrix:
 Charge =  0 Multiplicity = 1

 SCF Done:  E(RB3LYP) =  -596.552152223     A.U. after   14 cycles
 SCF Done:  E(RB3LYP) =  -596.556654818     A.U. after   13 cycles
 SCF Done:  E(RB3LYP) =  -596.556257659     A.U. after   13 cycles
 SCF Done:  E(RB3LYP) =  -596.557505818     A.U. after   11 cycles
 SCF Done:  E(RB3LYP) =  -596.557720669     A.U. after   12 cycles
 SCF Done:  E(RB3LYP) =  -596.557814169     A.U. after   11 cycles
 SCF Done:  E(RB3LYP) =  -596.557836543     A.U. after   10 cycles
 SCF Done:  E(RB3LYP) =  -596.557857634     A.U. after   10 cycles
 SCF Done:  E(RB3LYP) =  -596.557859954     A.U. after    9 cycles
 SCF Done:  E(RB3LYP) =  -596.557861158     A.U. after    8 cycles
 SCF Done:  E(RB3LYP) =  -596.557861321     A.U. after    7 cycles
 Optimization completed.
    -- Stationary point found.
 Normal termination of Gaussian 16 at Wed Dec  9 22:31:19 2020.

 --------------------------------------------------------------------
 #N Geom=AllCheck Guess=TCheck SCRF=Check GenChk RB3LYP/6-31G(d) Freq
 --------------------------------------------------------------------

 Structure from the checkpoint file:  "JID_3271.chk"
 ------------------------------
 CID_13129478_JID_3271_neutraal
 ------------------------------
 Charge =  0 Multiplicity = 1

 SCF Done:  E(RB3LYP) =  -596.557861321     A.U. after    1 cycles

  Exact polarizability: 118.562   0.293 109.609   3.269   3.111 101.920
 Approx polarizability: 149.222   5.727 164.694   1.770   9.115 157.164

                      1                      2                      3
                      A                      A                      A
 Frequencies --     61.4089                85.0624               102.4305
 Red. masses --      3.8841                 3.6348                 4.5794
 Frc consts  --      0.0086                 0.0155                 0.0283
 IR Inten    --      2.2827                 0.1703                 3.6234

                      4                      5                      6
                      A                      A                      A
 Frequencies --    118.7635               171.9515               197.7918
 Red. masses --      4.2768                 4.1100                 3.1708
 Frc consts  --      0.0355                 0.0716                 0.0731
 IR Inten    --      1.5004                 2.6840                 3.4283

                      7                      8                      9
                      A                      A                      A
 Frequencies --    219.9348               253.6059               268.6180
 Red. masses --      2.6055                 1.8612                 2.1571
 Frc consts  --      0.0743                 0.0705                 0.0917
 IR Inten    --      0.2931                 0.3026                 2.8985

                     10                     11                     12
                      A                      A                      A
 Frequencies --    373.9855               395.2593               406.8147
 Red. masses --      3.1043                 1.8145                 1.9522
 Frc consts  --      0.2558                 0.1670                 0.1904
 IR Inten    --      0.3361                 2.7028                 0.9667

                     13                     14                     15
                      A                      A                      A
 Frequencies --    471.4733               492.7739               503.0678
 Red. masses --      2.8462                 3.4054                 2.5119
 Frc consts  --      0.3728                 0.4872                 0.3745
 IR Inten    --      0.3331                 2.5961                 4.4631

                     16                     17                     18
                      A                      A                      A
 Frequencies --    595.0654               642.5200               681.1332
 Red. masses --      2.6322                 5.1261                 3.2655
 Frc consts  --      0.5492                 1.2468                 0.8926
 IR Inten    --      5.0046                 4.1985                 3.3008

                     19                     20                     21
                      A                      A                      A
 Frequencies --    734.2658               752.2662               808.5557
 Red. masses --      5.2697                 3.4681                 2.5347
 Frc consts  --      1.6739                 1.1564                 0.9763
 IR Inten    --      0.1666                 8.1718                15.0461

                     22                     23                     24
                      A                      A                      A
 Frequencies --    834.0773               850.5987               868.8698
 Red. masses --      1.4751                 2.4019                 2.4802
 Frc consts  --      0.6046                 1.0239                 1.1032
 IR Inten    --      0.7338                 1.1710                 3.3460

                     25                     26                     27
                      A                      A                      A
 Frequencies --    882.2442               900.8575               926.4685
 Red. masses --      1.4427                 2.1982                 2.3008
 Frc consts  --      0.6616                 1.0511                 1.1636
 IR Inten    --      4.3059                 1.8331                 9.9046

                     28                     29                     30
                      A                      A                      A
 Frequencies --    970.1581               990.9253              1003.8809
 Red. masses --      2.5407                 1.2935                 2.3012
 Frc consts  --      1.4089                 0.7484                 1.3664
 IR Inten    --      0.6934                 0.2497                 6.4077

                     31                     32                     33
                      A                      A                      A
 Frequencies --   1016.7850              1057.3865              1060.6184
 Red. masses --      2.2182                 3.2440                 2.6089
 Frc consts  --      1.3511                 2.1370                 1.7291
 IR Inten    --      9.0254                48.0758                28.8180

                     34                     35                     36
                      A                      A                      A
 Frequencies --   1080.9416              1100.8675              1105.0056
 Red. masses --      1.8437                 2.1452                 1.7744
 Frc consts  --      1.2692                 1.5317                 1.2765
 IR Inten    --      2.3660                 4.1199                30.4436

                     37                     38                     39
                      A                      A                      A
 Frequencies --   1147.4038              1155.8702              1184.2043
 Red. masses --      2.3859                 2.3952                 1.6554
 Frc consts  --      1.8507                 1.8854                 1.3677
 IR Inten    --     46.5760                49.9351                64.4803

                     40                     41                     42
                      A                      A                      A
 Frequencies --   1190.5422              1215.1912              1231.2948
 Red. masses --      1.5094                 1.9770                 1.2401
 Frc consts  --      1.2605                 1.7201                 1.1077
 IR Inten    --     32.6071                44.1632                 6.8142

                     43                     44                     45
                      A                      A                      A
 Frequencies --   1246.8440              1258.1461              1302.4816
 Red. masses --      1.3586                 1.4138                 1.5944
 Frc consts  --      1.2444                 1.3185                 1.5936
 IR Inten    --     16.9765                27.5502                 9.8167

                     46                     47                     48
                      A                      A                      A
 Frequencies --   1303.5501              1309.4910              1318.0192
 Red. masses --      1.2777                 1.4115                 1.1938
 Frc consts  --      1.2792                 1.4261                 1.2219
 IR Inten    --      6.9802                 4.3831                11.7056

                     49                     50                     51
                      A                      A                      A
 Frequencies --   1356.8426              1373.0529              1373.9975
 Red. masses --      1.3683                 1.5427                 1.3114
 Frc consts  --      1.4842                 1.7136                 1.4587
 IR Inten    --      5.3520                 4.0657                 0.3238

                     52                     53                     54
                      A                      A                      A
 Frequencies --   1395.8720              1400.7919              1404.7590
 Red. masses --      1.3879                 1.4558                 1.4163
 Frc consts  --      1.5933                 1.6830                 1.6467
 IR Inten    --     20.2959                 0.8986                 3.5905

                     55                     56                     57
                      A                      A                      A
 Frequencies --   1408.5450              1422.9296              1431.0197
 Red. masses --      1.3672                 1.3743                 1.4411
 Frc consts  --      1.5981                 1.6395                 1.7388
 IR Inten    --     24.9649                 1.6235                36.8641

                     58                     59                     60
                      A                      A                      A
 Frequencies --   1450.2755              1496.5359              1505.8065
 Red. masses --      1.3756                 1.0945                 1.1002
 Frc consts  --      1.7046                 1.4442                 1.4698
 IR Inten    --      4.7112                 7.9606                 0.9224

                     61                     62                     63
                      A                      A                      A
 Frequencies --   1513.5275              1520.9813              1524.4240
 Red. masses --      1.0866                 1.0976                 1.1053
 Frc consts  --      1.4666                 1.4960                 1.5133
 IR Inten    --      7.5453                 8.2989                 3.8255

                     64                     65                     66
                      A                      A                      A
 Frequencies --   1528.4592              1540.3928              1556.6572
 Red. masses --      1.0844                 1.1059                 1.0928
 Frc consts  --      1.4926                 1.5460                 1.5602
 IR Inten    --      5.9600                 1.0865                 5.6702

                     67                     68                     69
                      A                      A                      A
 Frequencies --   1872.0216              2914.8829              2944.0486
 Red. masses --     12.5429                 1.0716                 1.0722
 Frc consts  --     25.8983                 5.3643                 5.4753
 IR Inten    --    291.2304                67.5295                72.2695

                     70                     71                     72
                      A                      A                      A
 Frequencies --   3021.8007              3040.7752              3044.6223
 Red. masses --      1.0680                 1.0601                 1.0611
 Frc consts  --      5.7458                 5.7750                 5.7950
 IR Inten    --     27.9209                29.9792                24.0853

                     73                     74                     75
                      A                      A                      A
 Frequencies --   3047.3295              3068.1823              3071.4208
 Red. masses --      1.0611                 1.0691                 1.0861
 Frc consts  --      5.8058                 5.9299                 6.0367
 IR Inten    --     26.1263                38.8239                49.3879

                     76                     77                     78
                      A                      A                      A
 Frequencies --   3072.9243              3079.7035              3087.1461
 Red. masses --      1.0771                 1.0932                 1.0798
 Frc consts  --      5.9928                 6.1089                 6.0630
 IR Inten    --      2.6412                58.6005                13.8905

                     79                     80                     81
                      A                      A                      A
 Frequencies --   3088.3094              3088.5895              3093.8694
 Red. masses --      1.0975                 1.1049                 1.1047
 Frc consts  --      6.1673                 6.2100                 6.2304
 IR Inten    --     30.4926                30.8030                67.0826

                     82                     83                     84
                      A                      A                      A
 Frequencies --   3104.2269              3132.7809              3144.9564
 Red. masses --      1.0892                 1.0993                 1.1024
 Frc consts  --      6.1840                 6.3565                 6.4240
 IR Inten    --     23.8695                26.7674                28.2878

 - Thermochemistry -
 -------------------
 Temperature   298.150 Kelvin.  Pressure   1.00000 Atm.
 Atom     1 has atomic number  6 and mass  12.00000

 Molecular mass:   183.12593 amu.
 Principal axes and moments of inertia in atomic units:
                           1         2         3
     Eigenvalues --  1325.892793257.619393516.75649
           X            0.99961  -0.02538   0.01124
           Y            0.02538   0.99968  -0.00029
           Z           -0.01123   0.00058   0.99994
 This molecule is an asymmetric top.
 Rotational symmetry number  1.
 Warning -- assumption of classical behavior for rotation
           may cause significant error
 Rotational temperatures (Kelvin)      0.06532     0.02659     0.02463
 Rotational constants (GHZ):           1.36115     0.55401     0.51318
 Zero-point vibrational energy     705628.9 (Joules/Mol)
                                  168.64934 (Kcal/Mol)
 Warning -- explicit consideration of  16 degrees of freedom as
           vibrations may cause significant error
 Vibrational temperatures:     88.35   122.39   147.37   170.87   247.40
          (Kelvin)            284.58   316.44   364.88   386.48   538.08
                              568.69   585.32   678.34   708.99   723.80
                              856.17   924.44   980.00  1056.44  1082.34
                             1163.33  1200.05  1223.82  1250.11  1269.35
                             1296.13  1332.98  1395.84  1425.72  1444.36
                             1462.93  1521.34  1525.99  1555.23  1583.90
                             1589.86  1650.86  1663.04  1703.81  1712.92
                             1748.39  1771.56  1793.93  1810.19  1873.98
                             1875.52  1884.07  1896.34  1952.19  1975.52
                             1976.88  2008.35  2015.43  2021.13  2026.58
                             2047.28  2058.92  2086.62  2153.18  2166.52
                             2177.63  2188.35  2193.31  2199.11  2216.28
                             2239.68  2693.42  4193.87  4235.83  4347.70
                             4375.00  4380.53  4384.43  4414.43  4419.09
                             4421.25  4431.01  4441.71  4443.39  4443.79
                             4451.39  4466.29  4507.37  4524.89

 Zero-point correction=                           0.268760 (Hartree/Particle)
 Thermal correction to Energy=                    0.280507
 Thermal correction to Enthalpy=                  0.281451
 Thermal correction to Gibbs Free Energy=         0.230877
 Sum of electronic and zero-point Energies=           -596.289101
 Sum of electronic and thermal Energies=              -596.277354
 Sum of electronic and thermal Enthalpies=            -596.276410
 Sum of electronic and thermal Free Energies=         -596.326984

                     E (Thermal)             CV                S
                      KCal/Mol        Cal/Mol-Kelvin    Cal/Mol-Kelvin
 Total                  176.021             46.116            106.442
 Electronic               0.000              0.000              0.000
 Translational            0.889              2.981             41.521
 Rotational               0.889              2.981             31.097
 Vibrational            174.244             40.154             33.824
 Vibration     1          0.597              1.973              4.411
 Vibration     2          0.601              1.960              3.771
 Vibration     3          0.604              1.947              3.408
 Vibration     4          0.609              1.934              3.120
 Vibration     5          0.626              1.877              2.414
 Vibration     6          0.637              1.843              2.154
 Vibration     7          0.647              1.811              1.960
 Vibration     8          0.665              1.757              1.705
 Vibration     9          0.673              1.731              1.605
 Vibration    10          0.745              1.525              1.063
 Vibration    11          0.762              1.480              0.980
 Vibration    12          0.772              1.455              0.938
 Vibration    13          0.828              1.313              0.733
 Vibration    14          0.848              1.266              0.676
 Vibration    15          0.858              1.243              0.650
 Vibration    16          0.953              1.042              0.458

 Optimization completed.
    -- Stationary point found.
 Normal termination of Gaussian 16 at Wed Dec  9 22:40:46 2020.

 ----------------------------------------------------------------------
 # B3LYP/6-311++G(d,p) empiricaldispersion=gd3bj scf=xqc pop=npa geom=c
 heck
 ----------------------------------------------------------------------

 --------------------------------------
 CID_13129478_JID_3271_Energie_neutraal
 --------------------------------------
 Structure from the checkpoint file:  "JID_3271.chk"
 Charge =  0 Multiplicity = 1

 SCF Done:  E(RB3LYP) =  -596.724396432     A.U. after   13 cycles
 Normal termination of Gaussian 16 at Wed Dec  9 22:44:38 2020.

 ----------------------------------------------------------------------
 # B3LYP/6-311++G(d,p) empiricaldispersion=gd3bj scf=xqc pop=npa geom=c
 heck
 ----------------------------------------------------------------------

 ------------------------------------
 CID_13129478_JID_3271_Energie_kation
 ------------------------------------
 Structure from the checkpoint file:  "JID_3271.chk"
 Charge =  1 Multiplicity = 2

 SCF Done:  E(UB3LYP) =  -596.435455762     A.U. after   19 cycles
 Normal termination of Gaussian 16 at Wed Dec  9 22:52:48 2020.
 Gaussian 16:  ES64L-G16RevA.03 25-Dec-2016

 ----------------------------------------------------------------------
 # B3LYP/6-311++G(d,p) empiricaldispersion=gd3bj scf=xqc pop=npa geom=c
 heck
 ----------------------------------------------------------------------

 -----------------------------------
 CID_13129478_JID_3271_Energie_anion
 -----------------------------------
 Structure from the checkpoint file:  "JID_3271.chk"
 Charge = -1 Multiplicity = 2

                         Standard orientation:
 ---------------------------------------------------------------------
 Center     Atomic      Atomic             Coordinates (Angstroms)
 Number     Number       Type             X           Y           Z
 ---------------------------------------------------------------------
      1          6           0       -3.129814    0.221127   -0.877441
      2          6           0       -2.410317    1.453965   -0.318116
      3          6           0       -0.943645    1.134089   -0.015929
      4          7           0       -0.848773   -0.013684    0.880303
      5          6           0       -1.467485   -1.218372    0.347910
      6          6           0       -2.953761   -0.973221    0.067845
      7          6           0        0.379394   -0.155801    1.630216
      8          6           0        1.731385   -0.422706    0.900091
      9          6           0        1.826217   -1.639217   -0.034186
     10          6           0        1.757507   -1.015600   -1.438574
     11          8           0        2.199866    0.347692   -1.294514
     12          6           0        2.134229    0.747426    0.007785
     13          8           0        2.363219    1.880771    0.346671
     14          1           0       -4.193378    0.432480   -1.039611
     15          1           0       -2.703390   -0.031079   -1.859904
     16          1           0       -2.464067    2.289833   -1.025952
     17          1           0       -2.898027    1.774472    0.611112
     18          1           0       -0.414066    0.958929   -0.972068
     19          1           0       -0.452086    1.987073    0.461699
     20          1           0       -1.344961   -2.023764    1.081718
     21          1           0       -0.993343   -1.561900   -0.593685
     22          1           0       -3.460751   -0.769427    1.019274
     23          1           0       -3.401494   -1.878499   -0.360714
     24          1           0        0.528588    0.766009    2.206044
     25          1           0        0.235560   -0.969818    2.351233
     26          1           0        2.478972   -0.476649    1.699064
     27          1           0        2.788517   -2.142438    0.101766
     28          1           0        1.038954   -2.378263    0.126283
     29          1           0        2.412543   -1.498723   -2.166543
     30          1           0        0.736899   -1.000279   -1.836706
 ---------------------------------------------------------------------

 SCF Done:  E(UB3LYP) =  -596.713190782     A.U. after   32 cycles

 The electronic state is 2-A.
 Alpha  occ. eigenvalues --  -19.06627 -19.00976 -14.20617 -10.19691 -10.13123
 Alpha  occ. eigenvalues --  -10.10285 -10.09555 -10.09285 -10.08929 -10.07739
 Alpha  occ. eigenvalues --  -10.07286 -10.07234 -10.06682  -1.00495  -0.92816
 Alpha  occ. eigenvalues --   -0.83364  -0.71857  -0.69300  -0.65945  -0.64125
 Alpha  occ. eigenvalues --   -0.59096  -0.53554  -0.52968  -0.50338  -0.46155
 Alpha  occ. eigenvalues --   -0.45720  -0.41153  -0.40714  -0.38245  -0.37710
 Alpha  occ. eigenvalues --   -0.36020  -0.35825  -0.34088  -0.33629  -0.32020
 Alpha  occ. eigenvalues --   -0.31690  -0.31295  -0.30821  -0.29337  -0.26960
 Alpha  occ. eigenvalues --   -0.26209  -0.25511  -0.25017  -0.24493  -0.23556
 Alpha  occ. eigenvalues --   -0.22318  -0.22189  -0.20118  -0.17542  -0.11338
 Alpha  occ. eigenvalues --    0.04323
 Alpha virt. eigenvalues --    0.06351   0.07205   0.07729   0.08739   0.08786
 Alpha virt. eigenvalues --    0.09481   0.09987   0.10597   0.10867   0.11610
 Alpha virt. eigenvalues --    0.12098   0.12767   0.13043   0.13576   0.14398

  Beta  occ. eigenvalues --  -19.06626 -19.00965 -14.20616 -10.19674 -10.13099
  Beta  occ. eigenvalues --  -10.10266 -10.09549 -10.09257 -10.08920 -10.07700
  Beta  occ. eigenvalues --  -10.07280 -10.07222 -10.06663  -1.00478  -0.92800
  Beta  occ. eigenvalues --   -0.83350  -0.71820  -0.69266  -0.65916  -0.64072
  Beta  occ. eigenvalues --   -0.59052  -0.53513  -0.52917  -0.50279  -0.46111
  Beta  occ. eigenvalues --   -0.45675  -0.41094  -0.40672  -0.38196  -0.37678
  Beta  occ. eigenvalues --   -0.35991  -0.35790  -0.34056  -0.33595  -0.31977
  Beta  occ. eigenvalues --   -0.31653  -0.31258  -0.30786  -0.29294  -0.26917
  Beta  occ. eigenvalues --   -0.26173  -0.25481  -0.24966  -0.24460  -0.23527
  Beta  occ. eigenvalues --   -0.22288  -0.22156  -0.20090  -0.17523  -0.11316
  Beta virt. eigenvalues --    0.06577   0.07428   0.07848   0.08307   0.09048
  Beta virt. eigenvalues --    0.09318   0.10144   0.10420   0.10940   0.11199
  Beta virt. eigenvalues --    0.12048   0.12599   0.13119   0.13304   0.13839

 Mulliken charges and spin densities:
               1          2
     1  C   -0.195035  -0.093530
     2  C    0.097106  -0.610000
     3  C   -0.307383   0.100364
     4  N    0.008450   0.160819
     5  C   -0.257035   0.029959
     6  C    1.050720  -1.486514
     7  C    0.101687  -0.630851
     8  C    0.548508  -0.164624
     9  C    0.559398  -0.835887
    10  C    0.788807  -1.192343
    11  O   -0.020869   0.002406
    12  C   -0.478118   0.271101
    13  O   -0.270019   0.002287
    14  H   -0.135557   0.313230
    15  H    0.050493   0.055768
    16  H    0.094085   0.050503
    17  H    0.057949   0.075181
    18  H    0.171495  -0.022251
    19  H    0.189797  -0.020712
    20  H   -0.470726   0.649024
    21  H    0.474796  -0.407438
    22  H    0.059965   0.071889
    23  H   -0.475763   0.642681
    24  H    0.048729   0.131145
    25  H   -0.241964   0.418799
    26  H   -0.401831   0.680825
    27  H   -0.802967   1.022204
    28  H   -0.655638   0.820722
    29  H   -0.448953   0.642801
    30  H   -0.140125   0.322440
 Sum of Mulliken charges =  -1.00000   1.00000

 Dipole moment (field-independent basis, Debye):
    X=             -3.4363    Y=              5.3549    Z=             -1.1403  Tot=              6.4640
 Quadrupole moment (field-independent basis, Debye-Ang):
   XX=           -146.0661   YY=           -133.2003   ZZ=           -115.3102
   XY=             -0.6489   XZ=             -1.7864   YZ=              2.9200

 Summary of Natural Population Analysis:

                                       Natural Population
                Natural  -----------------------------------------------
    Atom  No    Charge         Core      Valence    Rydberg      Total
 -----------------------------------------------------------------------
      C    1   -0.19150      0.99963     2.18324    0.00864     3.19150
      C    2   -0.19015      0.99963     2.18323    0.00729     3.19015
      C    3   -0.08623      0.99961     2.07797    0.00866     3.08623
      N    4   -0.28425      0.99970     2.77184    0.01271     3.78425
      C    5   -0.08441      0.99960     2.07170    0.01311     3.08441
      C    6   -0.19177      0.99963     2.18274    0.00940     3.19177
      C    7   -0.07145      0.99959     2.05831    0.01356     3.07145
      C    8   -0.17201      0.99955     2.15955    0.01291     3.17201
      C    9   -0.20892      0.99963     2.19898    0.01031     3.20892
      C   10   -0.00964      0.99959     1.99822    0.01184     3.00964
      O   11   -0.27708      0.99986     3.26992    0.00730     4.27708
      C   12    0.41300      0.99965     1.55991    0.02744     2.58700
      O   13   -0.30060      0.99986     3.29469    0.00605     4.30060
      H   14    0.09776      0.00000     0.40124    0.00099     0.40224
      H   15    0.09312      0.00000     0.40557    0.00131     0.40688
      H   16    0.09593      0.00000     0.40316    0.00091     0.40407
      H   17    0.09490      0.00000     0.40370    0.00140     0.40510
      H   18    0.08050      0.00000     0.41713    0.00237     0.41950
      H   19    0.10248      0.00000     0.39648    0.00103     0.39752
      H   20    0.10111      0.00000     0.39696    0.00193     0.39889
      H   21    0.07637      0.00000     0.42121    0.00242     0.42363
      H   22    0.09477      0.00000     0.40370    0.00153     0.40523
      H   23    0.10032      0.00000     0.39836    0.00132     0.39968
      H   24    0.09876      0.00000     0.39995    0.00129     0.40124
      H   25    0.10113      0.00000     0.39742    0.00145     0.39887
      H   26    0.12005      0.00000     0.37793    0.00202     0.37995
      H   27    0.10837      0.00000     0.38736    0.00427     0.39163
      H   28    0.11072      0.00000     0.38669    0.00259     0.38928
      H   29    0.09374      0.00000     0.40455    0.00171     0.40626
      H   30    0.08501      0.00000     0.41295    0.00204     0.41499
 =======================================================================
   * Total *   -0.00000     12.99551    36.82468    0.17981    50.00000

 Normal termination of Gaussian 16 at Wed Dec  9 23:06:18 2020.
