 Gaussian 16, Revision A.03,

 -----------------------------------------------------------
 # opt freq B3LYP/6-31G(d) empiricaldispersion=gd3bj scf=xqc
 -----------------------------------------------------------

 -------------------------------
 CID_149832946_JID_4144_neutraal
 -------------------------------
 Symbolic Z-matrix:
 Charge =  0 Multiplicity = 1

 SCF Done:  E(RB3LYP) =  -636.930284602     A.U. after   16 cycles
 SCF Done:  E(RB3LYP) =  -636.937243314     A.U. after   16 cycles
 SCF Done:  E(RB3LYP) =  -636.938019335     A.U. after   14 cycles
 SCF Done:  E(RB3LYP) =  -636.938801775     A.U. after   13 cycles
 SCF Done:  E(RB3LYP) =  -636.938893107     A.U. after   13 cycles
 SCF Done:  E(RB3LYP) =  -636.938987311     A.U. after   12 cycles
 SCF Done:  E(RB3LYP) =  -636.939071949     A.U. after   11 cycles
 SCF Done:  E(RB3LYP) =  -636.939105257     A.U. after   12 cycles
 SCF Done:  E(RB3LYP) =  -636.939118435     A.U. after   12 cycles
 SCF Done:  E(RB3LYP) =  -636.939123463     A.U. after    9 cycles
 SCF Done:  E(RB3LYP) =  -636.939125984     A.U. after   10 cycles
 SCF Done:  E(RB3LYP) =  -636.939126335     A.U. after    8 cycles
 Optimization completed.
    -- Stationary point found.
 Normal termination of Gaussian 16 at Thu Dec 10 09:15:56 2020.

 --------------------------------------------------------------------
 #N Geom=AllCheck Guess=TCheck SCRF=Check GenChk RB3LYP/6-31G(d) Freq
 --------------------------------------------------------------------

 Structure from the checkpoint file:  "JID_4144.chk"
 -------------------------------
 CID_149832946_JID_4144_neutraal
 -------------------------------
 Charge =  0 Multiplicity = 1

 SCF Done:  E(RB3LYP) =  -636.939126335     A.U. after    1 cycles

  Exact polarizability: 159.059 -12.965 135.797  -7.476  -8.671  58.551
 Approx polarizability: 271.143 -35.505 249.096 -27.065 -11.618 102.948

                      1                      2                      3
                      A                      A                      A
 Frequencies --     48.0305                69.3243                95.7785
 Red. masses --      5.6773                 9.8302                 6.1118
 Frc consts  --      0.0077                 0.0278                 0.0330
 IR Inten    --      0.2072                 0.3115                 0.2007

                      4                      5                      6
                      A                      A                      A
 Frequencies --    131.0800               146.2897               254.0527
 Red. masses --      5.9759                 7.4182                 8.7301
 Frc consts  --      0.0605                 0.0935                 0.3320
 IR Inten    --      2.0162                 0.7426                 6.2526

                      7                      8                      9
                      A                      A                      A
 Frequencies --    291.0750               328.7024               373.2756
 Red. masses --      7.8796                 6.8003                 6.7538
 Frc consts  --      0.3933                 0.4329                 0.5544
 IR Inten    --      2.6950                 3.6259                 2.8231

                     10                     11                     12
                      A                      A                      A
 Frequencies --    396.1349               491.1654               512.6352
 Red. masses --      2.7761                 5.6688                 3.0464
 Frc consts  --      0.2567                 0.8057                 0.4717
 IR Inten    --      0.4662                13.0611                18.8498

                     13                     14                     15
                      A                      A                      A
 Frequencies --    518.7542               530.0203               574.4245
 Red. masses --      2.0482                 6.2083                 5.1539
 Frc consts  --      0.3247                 1.0276                 1.0020
 IR Inten    --     96.8700                 1.7384                 7.4020

                     16                     17                     18
                      A                      A                      A
 Frequencies --    663.1385               685.7919               707.2141
 Red. masses --      2.7295                 6.8115                 6.6872
 Frc consts  --      0.7072                 1.8875                 1.9706
 IR Inten    --      2.1846                 0.4809                25.4753

                     19                     20                     21
                      A                      A                      A
 Frequencies --    721.8837               760.9486               770.5201
 Red. masses --      7.4777                 5.8277                 4.2464
 Frc consts  --      2.2959                 1.9882                 1.4854
 IR Inten    --      4.8038                 5.7555                 6.2604

                     22                     23                     24
                      A                      A                      A
 Frequencies --    797.1295               850.3215               894.3326
 Red. masses --      1.4100                 1.5771                 1.2425
 Frc consts  --      0.5279                 0.6719                 0.5855
 IR Inten    --     14.5605                25.1188                 0.7773

                     25                     26                     27
                      A                      A                      A
 Frequencies --    954.1110               979.2179               995.4218
 Red. masses --      7.2340                 1.3163                 1.4290
 Frc consts  --      3.8800                 0.7437                 0.8342
 IR Inten    --     10.3353                 0.5784                 0.3250

                     28                     29                     30
                      A                      A                      A
 Frequencies --   1015.1133              1051.4450              1101.5993
 Red. masses --      7.1146                 5.6373                 1.9200
 Frc consts  --      4.3195                 3.6719                 1.3728
 IR Inten    --      9.0030                17.4955                 0.3867

                     31                     32                     33
                      A                      A                      A
 Frequencies --   1114.8984              1121.5338              1173.4557
 Red. masses --      1.6150                 1.6187                 3.6685
 Frc consts  --      1.1827                 1.1996                 2.9763
 IR Inten    --      7.7187                 0.9075                12.1120

                     34                     35                     36
                      A                      A                      A
 Frequencies --   1228.4052              1256.6419              1292.5094
 Red. masses --      2.3841                 1.2859                 5.8790
 Frc consts  --      2.1196                 1.1964                 5.7866
 IR Inten    --      5.9472                 3.0636                16.6902

                     37                     38                     39
                      A                      A                      A
 Frequencies --   1314.0362              1356.3743              1372.7820
 Red. masses --      9.0511                 3.2226                 1.4507
 Frc consts  --      9.2081                 3.4931                 1.6108
 IR Inten    --     35.1595                 7.7806                 8.0008

                     40                     41                     42
                      A                      A                      A
 Frequencies --   1424.8249              1460.8768              1479.4984
 Red. masses --      3.8058                 2.0633                 4.8258
 Frc consts  --      4.5522                 2.5944                 6.2237
 IR Inten    --     11.4870                23.3459                38.3784

                     43                     44                     45
                      A                      A                      A
 Frequencies --   1527.6670              1555.8029              1597.0237
 Red. masses --      2.9062                 3.1730                 6.5490
 Frc consts  --      3.9961                 4.5252                 9.8412
 IR Inten    --      7.3754                41.4974                14.3056

                     46                     47                     48
                      A                      A                      A
 Frequencies --   1616.7870              1658.6758              2282.7068
 Red. masses --      7.0832                 5.4576                13.9831
 Frc consts  --     10.9091                 8.8466                42.9294
 IR Inten    --     59.3273               110.8779               512.8031

                     49                     50                     51
                      A                      A                      A
 Frequencies --   3171.4716              3174.6442              3216.2536
 Red. masses --      1.0879                 1.0913                 1.0926
 Frc consts  --      6.4468                 6.4803                 6.6590
 IR Inten    --     34.9993                28.3868                11.0568

                     52                     53                     54
                      A                      A                      A
 Frequencies --   3231.0636              3275.9191              3645.1298
 Red. masses --      1.0929                 1.0975                 1.0812
 Frc consts  --      6.7226                 6.9394                 8.4643
 IR Inten    --      3.6227                 1.6415                88.5604

 - Thermochemistry -
 -------------------
 Temperature   298.150 Kelvin.  Pressure   1.00000 Atm.
 Atom     1 has atomic number  6 and mass  12.00000

 Molecular mass:   186.06539 amu.
 Principal axes and moments of inertia in atomic units:
                           1         2         3
     Eigenvalues --  1638.648533000.255394396.93866
           X            0.99986  -0.01641  -0.00113
           Y            0.01638   0.99968  -0.01910
           Z            0.00144   0.01908   0.99982
 This molecule is an asymmetric top.
 Rotational symmetry number  1.
 Warning -- assumption of classical behavior for rotation
           may cause significant error
 Rotational temperatures (Kelvin)      0.05286     0.02887     0.01970
 Rotational constants (GHZ):           1.10136     0.60153     0.41045
 Zero-point vibrational energy     378366.4 (Joules/Mol)
                                   90.43173 (Kcal/Mol)
 Warning -- explicit consideration of  15 degrees of freedom as
           vibrations may cause significant error
 Vibrational temperatures:     69.11    99.74   137.80   188.59   210.48
          (Kelvin)            365.53   418.79   472.93   537.06   569.95
                              706.68   737.57   746.37   762.58   826.47
                              954.11   986.70  1017.52  1038.63  1094.84
                             1108.61  1146.89  1223.42  1286.75  1372.75
                             1408.88  1432.19  1460.52  1512.79  1584.96
                             1604.09  1613.64  1688.34  1767.40  1808.03
                             1859.63  1890.61  1951.52  1975.13  2050.01
                             2101.88  2128.67  2197.97  2238.45  2297.76
                             2326.20  2386.46  3284.31  4563.04  4567.60
                             4627.47  4648.78  4713.32  5244.53

 Zero-point correction=                           0.144112 (Hartree/Particle)
 Thermal correction to Energy=                    0.154846
 Thermal correction to Enthalpy=                  0.155790
 Thermal correction to Gibbs Free Energy=         0.106397
 Sum of electronic and zero-point Energies=           -636.795014
 Sum of electronic and thermal Energies=              -636.784281
 Sum of electronic and thermal Enthalpies=            -636.783336
 Sum of electronic and thermal Free Energies=         -636.832729

                     E (Thermal)             CV                S
                      KCal/Mol        Cal/Mol-Kelvin    Cal/Mol-Kelvin
 Total                   97.167             40.605            103.956
 Electronic               0.000              0.000              0.000
 Translational            0.889              2.981             41.569
 Rotational               0.889              2.981             31.447
 Vibrational             95.390             34.644             30.939
 Vibration     1          0.595              1.978              4.897
 Vibration     2          0.598              1.969              4.172
 Vibration     3          0.603              1.952              3.538
 Vibration     4          0.612              1.922              2.930
 Vibration     5          0.617              1.907              2.720
 Vibration     6          0.665              1.756              1.702
 Vibration     7          0.687              1.690              1.468
 Vibration     8          0.712              1.618              1.266
 Vibration     9          0.745              1.527              1.066
 Vibration    10          0.763              1.478              0.977
 Vibration    11          0.847              1.270              0.681
 Vibration    12          0.868              1.222              0.627
 Vibration    13          0.874              1.208              0.613
 Vibration    14          0.885              1.184              0.587
 Vibration    15          0.931              1.087              0.496

 Optimization completed.
    -- Stationary point found.
 Normal termination of Gaussian 16 at Thu Dec 10 09:20:54 2020.

 ----------------------------------------------------------------------
 # B3LYP/6-311++G(d,p) empiricaldispersion=gd3bj scf=xqc pop=npa geom=c
 heck
 ----------------------------------------------------------------------

 ---------------------------------------
 CID_149832946_JID_4144_Energie_neutraal
 ---------------------------------------
 Structure from the checkpoint file:  "JID_4144.chk"
 Charge =  0 Multiplicity = 1

 SCF Done:  E(RB3LYP) =  -637.106288526     A.U. after   17 cycles
 Normal termination of Gaussian 16 at Thu Dec 10 09:22:44 2020.

 ----------------------------------------------------------------------
 # B3LYP/6-311++G(d,p) empiricaldispersion=gd3bj scf=xqc pop=npa geom=c
 heck
 ----------------------------------------------------------------------

 -------------------------------------
 CID_149832946_JID_4144_Energie_kation
 -------------------------------------
 Structure from the checkpoint file:  "JID_4144.chk"
 Charge =  1 Multiplicity = 2

 SCF Done:  E(UB3LYP) =  -636.808185971     A.U. after   28 cycles
 Normal termination of Gaussian 16 at Thu Dec 10 09:26:45 2020.
 Gaussian 16:  ES64L-G16RevA.03 25-Dec-2016

 ----------------------------------------------------------------------
 # B3LYP/6-311++G(d,p) empiricaldispersion=gd3bj scf=xqc pop=npa geom=c
 heck
 ----------------------------------------------------------------------

 ------------------------------------
 CID_149832946_JID_4144_Energie_anion
 ------------------------------------
 Structure from the checkpoint file:  "JID_4144.chk"
 Charge = -1 Multiplicity = 2

                         Standard orientation:
 ---------------------------------------------------------------------
 Center     Atomic      Atomic             Coordinates (Angstroms)
 Number     Number       Type             X           Y           Z
 ---------------------------------------------------------------------
      1          6           0       -1.610513   -1.406099    0.524309
      2          6           0       -2.977610   -1.151784    0.499720
      3          7           0       -3.533006   -0.074987   -0.075660
      4          6           0       -2.695607    0.782792   -0.669775
      5          6           0       -1.311988    0.622966   -0.709428
      6          6           0       -0.736363   -0.492193   -0.083138
      7          6           0        0.704948   -0.740749   -0.072362
      8          6           0        1.764329    0.155527   -0.145245
      9          7           0        2.909389   -0.610812   -0.145123
     10          6           0        2.518236   -1.919078   -0.046931
     11          7           0        1.212703   -2.028182    0.006523
     12          7           0        1.923473    1.544128   -0.208166
     13          7           0        1.076725    2.265615    0.343227
     14          7           0        0.372663    3.051051    0.771769
     15          1           0       -1.213268   -2.295132    1.000961
     16          1           0       -3.668551   -1.848780    0.970732
     17          1           0       -3.154491    1.645337   -1.149944
     18          1           0       -0.705281    1.337770   -1.254836
     19          1           0        3.848834   -0.239653   -0.168237
     20          1           0        3.226540   -2.735528   -0.029558
 ---------------------------------------------------------------------

 SCF Done:  E(UB3LYP) =  -637.115589736     A.U. after   33 cycles
 SCF Done:  E(UB3LYP) =  -637.115589736     a.u. after    1 cycles

 The electronic state is 2-A.
 Alpha  occ. eigenvalues --  -14.32291 -14.25405 -14.23877 -14.23412 -14.18616
 Alpha  occ. eigenvalues --  -14.18065 -10.12701 -10.11681 -10.08453 -10.08379
 Alpha  occ. eigenvalues --  -10.07771 -10.07286 -10.05746 -10.05445  -1.00245
 Alpha  occ. eigenvalues --   -0.91249  -0.84828  -0.81946  -0.76755  -0.69629
 Alpha  occ. eigenvalues --   -0.64121  -0.63893  -0.55067  -0.51911  -0.51261
 Alpha  occ. eigenvalues --   -0.49732  -0.45760  -0.39421  -0.38972  -0.38206
 Alpha  occ. eigenvalues --   -0.37671  -0.35985  -0.34567  -0.33166  -0.32275
 Alpha  occ. eigenvalues --   -0.31346  -0.30746  -0.28361  -0.27864  -0.24310
 Alpha  occ. eigenvalues --   -0.21021  -0.19831  -0.18997  -0.16149  -0.14754
 Alpha  occ. eigenvalues --   -0.14412  -0.14048  -0.08975   0.03989
 Alpha virt. eigenvalues --    0.06412   0.07891   0.09008   0.09388   0.09862
 Alpha virt. eigenvalues --    0.10168   0.11352   0.12066   0.12810   0.13419
 Alpha virt. eigenvalues --    0.14389   0.14926   0.15624   0.15864   0.16839

  Beta  occ. eigenvalues --  -14.31863 -14.25346 -14.23971 -14.22891 -14.18586
  Beta  occ. eigenvalues --  -14.17907 -10.12553 -10.11689 -10.08455 -10.08370
  Beta  occ. eigenvalues --  -10.07785 -10.07171 -10.05735 -10.05420  -0.99472
  Beta  occ. eigenvalues --   -0.91143  -0.84477  -0.81740  -0.76643  -0.69419
  Beta  occ. eigenvalues --   -0.63972  -0.63727  -0.54814  -0.51840  -0.51057
  Beta  occ. eigenvalues --   -0.49646  -0.45650  -0.39241  -0.38696  -0.37768
  Beta  occ. eigenvalues --   -0.36531  -0.35855  -0.34413  -0.32585  -0.32124
  Beta  occ. eigenvalues --   -0.30755  -0.30240  -0.28242  -0.27474  -0.24256
  Beta  occ. eigenvalues --   -0.20154  -0.19388  -0.18739  -0.15891  -0.14429
  Beta  occ. eigenvalues --   -0.14172  -0.13867  -0.08710
  Beta virt. eigenvalues --    0.07414   0.08126   0.09031   0.09632   0.09890
  Beta virt. eigenvalues --    0.10236   0.11231   0.11652   0.12313   0.12938
  Beta virt. eigenvalues --    0.13530   0.14485   0.14970   0.15644   0.16001

 Mulliken charges and spin densities:
               1          2
     1  C    0.455128  -0.015472
     2  C   -0.594744   0.007565
     3  N   -0.102250   0.068342
     4  C   -0.671079  -0.076793
     5  C    0.067891   0.188144
     6  C    0.422858  -0.000215
     7  C   -0.113499  -0.328833
     8  C   -0.123428  -0.347844
     9  N   -0.060887  -0.125091
    10  C    0.294838  -0.137003
    11  N   -0.104664   0.004160
    12  N    0.067803  -0.233992
    13  N    0.276529   0.290556
    14  N   -0.591350   0.382039
    15  H    0.188093  -0.003698
    16  H    0.125718   0.000859
    17  H    0.140257  -0.004698
    18  H    0.033273   0.115224
    19  H   -0.381096   0.716392
    20  H   -0.329390   0.500361
 Sum of Mulliken charges =  -1.00000   1.00000

 Dipole moment (field-independent basis, Debye):
    X=             -1.2036    Y=             -1.6706    Z=             -0.2496  Tot=              2.0741
 Quadrupole moment (field-independent basis, Debye-Ang):
   XX=           -134.1542   YY=           -110.7336   ZZ=            -90.8986
   XY=              0.3615   XZ=              0.9564   YZ=             -4.9309

 Summary of Natural Population Analysis:

                                       Natural Population
                Natural  -----------------------------------------------
    Atom  No    Charge         Core      Valence    Rydberg      Total
 -----------------------------------------------------------------------
      C    1   -0.11115      0.99953     2.10457    0.00706     3.11115
      C    2    0.01837      0.99960     1.96797    0.01405     2.98163
      N    3   -0.22719      0.99972     2.71562    0.01186     3.72719
      C    4    0.02564      0.99960     1.96106    0.01370     2.97436
      C    5   -0.11915      0.99953     2.10807    0.01155     3.11915
      C    6    0.00319      0.99949     1.98674    0.01057     2.99681
      C    7    0.01199      0.99945     1.97383    0.01473     2.98801
      C    8    0.17606      0.99941     1.80859    0.01594     2.82394
      N    9   -0.27018      0.99966     2.76055    0.00997     3.77018
      C   10    0.09212      0.99966     1.88978    0.01843     2.90788
      N   11   -0.24720      0.99971     2.73811    0.00938     3.74720
      N   12   -0.21975      0.99964     2.70602    0.01409     3.71975
      N   13    0.15635      0.99970     2.32895    0.01500     3.34365
      N   14    0.03164      0.99981     2.45611    0.01243     3.46836
      H   15    0.10793      0.00000     0.39095    0.00112     0.39207
      H   16    0.08266      0.00000     0.41615    0.00119     0.41734
      H   17    0.08491      0.00000     0.41396    0.00113     0.41509
      H   18    0.10366      0.00000     0.39505    0.00130     0.39634
      H   19    0.20970      0.00000     0.27755    0.01275     0.29030
      H   20    0.09039      0.00000     0.40818    0.00143     0.40961
 =======================================================================
   * Total *    0.00000     13.99452    33.80780    0.19768    48.00000

 Normal termination of Gaussian 16 at Thu Dec 10 09:31:13 2020.
