 Gaussian 16, Revision A.03,

 -----------------------------------------------------------
 # opt freq B3LYP/6-31G(d) empiricaldispersion=gd3bj scf=xqc
 -----------------------------------------------------------

 --------------------------------
 CID_128769226_JID_10350_neutraal
 --------------------------------
 Symbolic Z-matrix:
 Charge =  0 Multiplicity = 1

 SCF Done:  E(RB3LYP) =  -1619.14171749     A.U. after   15 cycles
 SCF Done:  E(RB3LYP) =  -1619.14864214     A.U. after   12 cycles
 SCF Done:  E(RB3LYP) =  -1619.14943697     A.U. after   12 cycles
 SCF Done:  E(RB3LYP) =  -1619.15009605     A.U. after   12 cycles
 SCF Done:  E(RB3LYP) =  -1619.15048443     A.U. after   12 cycles
 SCF Done:  E(RB3LYP) =  -1619.15103347     A.U. after   15 cycles
 SCF Done:  E(RB3LYP) =  -1619.15178402     A.U. after   12 cycles
 SCF Done:  E(RB3LYP) =  -1619.15299531     A.U. after   13 cycles
 SCF Done:  E(RB3LYP) =  -1619.15335192     A.U. after   12 cycles
 SCF Done:  E(RB3LYP) =  -1619.15343164     A.U. after   11 cycles
 SCF Done:  E(RB3LYP) =  -1619.15346715     A.U. after   10 cycles
 SCF Done:  E(RB3LYP) =  -1619.15346780     A.U. after    8 cycles
 SCF Done:  E(RB3LYP) =  -1619.15346800     A.U. after    7 cycles
 SCF Done:  E(RB3LYP) =  -1619.15346815     A.U. after    7 cycles
 Optimization completed.
    -- Stationary point found.
 Normal termination of Gaussian 16 at Sun Dec 13 16:53:17 2020.

 --------------------------------------------------------------------
 #N Geom=AllCheck Guess=TCheck SCRF=Check GenChk RB3LYP/6-31G(d) Freq
 --------------------------------------------------------------------

 Structure from the checkpoint file:  "JID_10350.chk"
 --------------------------------
 CID_128769226_JID_10350_neutraal
 --------------------------------
 Charge =  0 Multiplicity = 1

 SCF Done:  E(RB3LYP) =  -1619.15346815     A.U. after    1 cycles

  Exact polarizability: 234.378   5.153 186.304  -2.210  12.304 145.690
 Approx polarizability: 293.570   0.775 286.078  -9.484  22.300 241.422

                      1                      2                      3
                      A                      A                      A
 Frequencies --     19.1160                26.7330                40.8678
 Red. masses --      4.6373                 3.1555                 4.8819
 Frc consts  --      0.0010                 0.0013                 0.0048
 IR Inten    --      0.9636                 0.6387                 1.2522

                      4                      5                      6
                      A                      A                      A
 Frequencies --     61.4489                82.2954               101.7049
 Red. masses --      4.1355                 6.0014                 3.4360
 Frc consts  --      0.0092                 0.0239                 0.0209
 IR Inten    --      0.8926                 3.6855                 0.7324

                      7                      8                      9
                      A                      A                      A
 Frequencies --    115.8699               133.3653               166.3546
 Red. masses --      4.9688                 4.9392                 4.9325
 Frc consts  --      0.0393                 0.0518                 0.0804
 IR Inten    --      1.1618                 1.2102                 1.0742

                     10                     11                     12
                      A                      A                      A
 Frequencies --    199.8803               224.4954               238.4066
 Red. masses --      4.0799                 1.4910                 2.1313
 Frc consts  --      0.0960                 0.0443                 0.0714
 IR Inten    --      1.5169                 0.5561                 0.3038

                     13                     14                     15
                      A                      A                      A
 Frequencies --    240.8300               254.7859               269.3014
 Red. masses --      1.9629                 4.7893                 2.3765
 Frc consts  --      0.0671                 0.1832                 0.1015
 IR Inten    --      0.3018                 2.4589                 1.2398

                     16                     17                     18
                      A                      A                      A
 Frequencies --    282.5051               304.9682               327.5900
 Red. masses --      2.9076                 5.5262                 3.5544
 Frc consts  --      0.1367                 0.3028                 0.2247
 IR Inten    --      1.9290                 1.3263                 3.2676

                     19                     20                     21
                      A                      A                      A
 Frequencies --    361.3313               389.2280               400.4569
 Red. masses --      4.5475                 2.1283                 3.5498
 Frc consts  --      0.3498                 0.1900                 0.3354
 IR Inten    --      1.6118                 2.9707                 3.1592

                     22                     23                     24
                      A                      A                      A
 Frequencies --    406.9649               420.3657               445.6367
 Red. masses --      4.7572                 3.6247                 3.3551
 Frc consts  --      0.4642                 0.3774                 0.3926
 IR Inten    --     10.6635                 3.7602                 6.1680

                     25                     26                     27
                      A                      A                      A
 Frequencies --    457.1553               481.5324               537.4068
 Red. masses --      2.2275                 2.1242                 3.8270
 Frc consts  --      0.2743                 0.2902                 0.6512
 IR Inten    --     23.1711                18.1591                11.7477

                     28                     29                     30
                      A                      A                      A
 Frequencies --    546.5705               550.3660               614.7127
 Red. masses --      4.5795                 4.0184                 6.9143
 Frc consts  --      0.8060                 0.7171                 1.5394
 IR Inten    --     37.6375                20.2386               134.7068

                     31                     32                     33
                      A                      A                      A
 Frequencies --    652.5052               657.1066               657.9328
 Red. masses --      3.1135                 4.1594                 3.1425
 Frc consts  --      0.7810                 1.0582                 0.8015
 IR Inten    --      4.3504                 3.1553                51.8261

                     34                     35                     36
                      A                      A                      A
 Frequencies --    682.5736               693.3834               715.4955
 Red. masses --      3.2238                 4.1937                 3.5010
 Frc consts  --      0.8849                 1.1879                 1.0560
 IR Inten    --      8.8501                12.3030                12.6540

                     37                     38                     39
                      A                      A                      A
 Frequencies --    724.6423               775.5968               806.6868
 Red. masses --      4.0274                 1.4055                 1.6006
 Frc consts  --      1.2460                 0.4981                 0.6137
 IR Inten    --     12.6152                14.7888                 8.1663

                     40                     41                     42
                      A                      A                      A
 Frequencies --    830.1477               848.1208               868.6926
 Red. masses --      2.2181                 2.3209                 3.0542
 Frc consts  --      0.9006                 0.9836                 1.3579
 IR Inten    --      2.8044                 1.2009               192.8058

                     43                     44                     45
                      A                      A                      A
 Frequencies --    872.3681               901.3969               933.3412
 Red. masses --      1.5054                 2.2959                 1.3974
 Frc consts  --      0.6750                 1.0991                 0.7172
 IR Inten    --      0.8585                 0.9167                 2.7332

                     46                     47                     48
                      A                      A                      A
 Frequencies --    958.3526               976.2641               996.3955
 Red. masses --      2.1350                 1.8888                 2.3114
 Frc consts  --      1.1553                 1.0606                 1.3520
 IR Inten    --     20.6750                 4.4410                 3.9132

                     49                     50                     51
                      A                      A                      A
 Frequencies --   1006.1776              1019.6633              1036.0089
 Red. masses --      4.6555                 2.3827                 1.6786
 Frc consts  --      2.7769                 1.4596                 1.0615
 IR Inten    --      8.3818                18.2935                 3.1388

                     52                     53                     54
                      A                      A                      A
 Frequencies --   1038.2155              1061.4206              1082.0145
 Red. masses --      2.4739                 1.7320                 1.8745
 Frc consts  --      1.5711                 1.1497                 1.2930
 IR Inten    --      1.6990                 4.8558                22.5826

                     55                     56                     57
                      A                      A                      A
 Frequencies --   1084.1292              1106.0918              1112.1294
 Red. masses --      2.7981                 2.0398                 2.7194
 Frc consts  --      1.9377                 1.4704                 1.9817
 IR Inten    --     70.6458                63.6712                31.2184

                     58                     59                     60
                      A                      A                      A
 Frequencies --   1126.8179              1135.7917              1155.4252
 Red. masses --      1.7684                 1.6549                 1.4323
 Frc consts  --      1.3230                 1.2578                 1.1266
 IR Inten    --     59.2327                 0.8098                21.4170

                     61                     62                     63
                      A                      A                      A
 Frequencies --   1157.8525              1193.6604              1216.9293
 Red. masses --      1.5552                 1.9999                 1.5698
 Frc consts  --      1.2284                 1.6789                 1.3697
 IR Inten    --     69.3899                 5.9056                 9.4407

                     64                     65                     66
                      A                      A                      A
 Frequencies --   1232.0010              1232.4274              1242.2182
 Red. masses --      2.4055                 1.3367                 1.3267
 Frc consts  --      2.1512                 1.1962                 1.2062
 IR Inten    --      2.0143                 6.4009                 3.6759

                     67                     68                     69
                      A                      A                      A
 Frequencies --   1286.6346              1295.8952              1306.5310
 Red. masses --      1.2891                 1.6780                 2.8898
 Frc consts  --      1.2574                 1.6603                 2.9064
 IR Inten    --     12.7052                 2.8514                 0.4881

                     70                     71                     72
                      A                      A                      A
 Frequencies --   1315.3703              1325.8216              1332.7673
 Red. masses --      4.6102                 1.2523                 1.8340
 Frc consts  --      4.6996                 1.2970                 1.9193
 IR Inten    --    103.4177                18.8181                10.2179

                     73                     74                     75
                      A                      A                      A
 Frequencies --   1347.1560              1361.0531              1364.7670
 Red. masses --      1.3030                 1.2349                 1.7630
 Frc consts  --      1.3933                 1.3478                 1.9347
 IR Inten    --      7.3816                 5.2549                 8.5446

                     76                     77                     78
                      A                      A                      A
 Frequencies --   1377.3245              1380.5836              1388.3177
 Red. masses --      1.2856                 1.3610                 1.5909
 Frc consts  --      1.4370                 1.5284                 1.8067
 IR Inten    --     12.1652                 5.0964                 8.6794

                     79                     80                     81
                      A                      A                      A
 Frequencies --   1393.2787              1406.1020              1412.4472
 Red. masses --      1.3474                 1.7580                 1.8748
 Frc consts  --      1.5411                 2.0479                 2.2037
 IR Inten    --     51.6171                23.9442                42.1045

                     82                     83                     84
                      A                      A                      A
 Frequencies --   1431.5985              1442.6329              1451.6669
 Red. masses --      1.4857                 1.2544                 1.6542
 Frc consts  --      1.7940                 1.5382                 2.0539
 IR Inten    --     22.7325                10.0521                19.6798

                     85                     86                     87
                      A                      A                      A
 Frequencies --   1458.4532              1496.1856              1503.4656
 Red. masses --      2.4635                 1.0925                 1.0876
 Frc consts  --      3.0874                 1.4409                 1.4485
 IR Inten    --     10.8553                 0.8331                15.9091

                     88                     89                     90
                      A                      A                      A
 Frequencies --   1503.9521              1508.9193              1513.8079
 Red. masses --      1.0925                 1.0971                 1.0838
 Frc consts  --      1.4560                 1.4717                 1.4633
 IR Inten    --      4.3663                 3.5193                 2.6888

                     91                     92                     93
                      A                      A                      A
 Frequencies --   1519.8533              1523.6616              1527.5621
 Red. masses --      1.1001                 1.0663                 1.0906
 Frc consts  --      1.4972                 1.4584                 1.4993
 IR Inten    --      5.6393                 6.3258                 1.8480

                     94                     95                     96
                      A                      A                      A
 Frequencies --   1534.9374              1555.8011              1573.1827
 Red. masses --      1.0830                 5.2359                 7.8822
 Frc consts  --      1.5034                 7.4671                11.4936
 IR Inten    --      7.1094                47.8904                32.5215

                     97                     98                     99
                      A                      A                      A
 Frequencies --   3020.1657              3031.9138              3036.1102
 Red. masses --      1.0672                 1.0819                 1.0715
 Frc consts  --      5.7353                 5.8594                 5.8196
 IR Inten    --     38.2075                11.3107                14.3978

                    100                    101                    102
                      A                      A                      A
 Frequencies --   3049.9581              3056.8605              3058.9234
 Red. masses --      1.0676                 1.0653                 1.0655
 Frc consts  --      5.8511                 5.8649                 5.8742
 IR Inten    --      9.4140                25.2365                19.1164

                    103                    104                    105
                      A                      A                      A
 Frequencies --   3060.5926              3064.6743              3068.8480
 Red. masses --      1.0550                 1.0444                 1.0736
 Frc consts  --      5.8223                 5.7795                 5.9572
 IR Inten    --      6.4787                26.1822                26.8828

                    106                    107                    108
                      A                      A                      A
 Frequencies --   3068.9279              3090.0058              3102.9767
 Red. masses --      1.0697                 1.0941                 1.0974
 Frc consts  --      5.9358                 6.1551                 6.2256
 IR Inten    --     18.1432                27.1262                33.8383

                    109                    110                    111
                      A                      A                      A
 Frequencies --   3105.2644              3110.6664              3118.7675
 Red. masses --      1.0980                 1.0987                 1.1000
 Frc consts  --      6.2379                 6.2635                 6.3038
 IR Inten    --     29.9148                19.9855                 5.7996

                    112                    113                    114
                      A                      A                      A
 Frequencies --   3121.6848              3123.6827              3136.0147
 Red. masses --      1.1019                 1.1037                 1.1028
 Frc consts  --      6.3268                 6.3450                 6.3898
 IR Inten    --     18.1844                15.3928                30.1094

                    115                    116                    117
                      A                      A                      A
 Frequencies --   3140.8751              3310.8838              3519.7975
 Red. masses --      1.1029                 1.0989                 1.0750
 Frc consts  --      6.4103                 7.0972                 7.8466
 IR Inten    --     20.9330                 2.9782                23.3623

 - Thermochemistry -
 -------------------
 Temperature   298.150 Kelvin.  Pressure   1.00000 Atm.
 Atom     1 has atomic number  6 and mass  12.00000

 Molecular mass:   315.10752 amu.
 Principal axes and moments of inertia in atomic units:
                           1         2         3
     Eigenvalues --  3589.89057********************
           X            0.99988   0.01466  -0.00452
           Y           -0.01453   0.99950   0.02811
           Z            0.00493  -0.02804   0.99959
 This molecule is an asymmetric top.
 Rotational symmetry number  1.
 Warning -- assumption of classical behavior for rotation
           may cause significant error
 Rotational temperatures (Kelvin)      0.02413     0.00704     0.00605
 Rotational constants (GHZ):           0.50273     0.14677     0.12607
 Zero-point vibrational energy     907544.2 (Joules/Mol)
                                  216.90828 (Kcal/Mol)
 Warning -- explicit consideration of  30 degrees of freedom as
           vibrations may cause significant error
 Vibrational temperatures:     27.50    38.46    58.80    88.41   118.40
          (Kelvin)            146.33   166.71   191.88   239.35   287.58
                              323.00   343.01   346.50   366.58   387.46
                              406.46   438.78   471.33   519.88   560.01
                              576.17   585.53   604.81   641.17   657.74
                              692.82   773.21   786.39   791.85   884.43
                              938.81   945.43   946.62   982.07   997.62
                             1029.44  1042.60  1115.91  1160.64  1194.40
                             1220.26  1249.85  1255.14  1296.91  1342.87
                             1378.86  1404.63  1433.59  1447.67  1467.07
                             1490.59  1493.76  1527.15  1556.78  1559.82
                             1591.42  1600.11  1621.24  1634.15  1662.40
                             1665.89  1717.41  1750.89  1772.57  1773.19
                             1787.27  1851.18  1864.50  1879.81  1892.52
                             1907.56  1917.55  1938.26  1958.25  1963.60
                             1981.66  1986.35  1997.48  2004.62  2023.07
                             2032.20  2059.75  2075.63  2088.62  2098.39
                             2152.68  2163.15  2163.85  2171.00  2178.03
                             2186.73  2192.21  2197.82  2208.43  2238.45
                             2263.46  4345.34  4362.25  4368.29  4388.21
                             4398.14  4401.11  4403.51  4409.38  4415.39
                             4415.50  4445.83  4464.49  4467.78  4475.56
                             4487.21  4491.41  4494.28  4512.03  4519.02
                             4763.62  5064.20

 Zero-point correction=                           0.345665 (Hartree/Particle)
 Thermal correction to Energy=                    0.364894
 Thermal correction to Enthalpy=                  0.365838
 Thermal correction to Gibbs Free Energy=         0.296412
 Sum of electronic and zero-point Energies=          -1618.807803
 Sum of electronic and thermal Energies=             -1618.788574
 Sum of electronic and thermal Enthalpies=           -1618.787630
 Sum of electronic and thermal Free Energies=        -1618.857056

                     E (Thermal)             CV                S
                      KCal/Mol        Cal/Mol-Kelvin    Cal/Mol-Kelvin
 Total                  228.974             74.644            146.120
 Electronic               0.000              0.000              0.000
 Translational            0.889              2.981             43.139
 Rotational               0.889              2.981             34.801
 Vibrational            227.197             68.682             68.179
 Vibration     1          0.593              1.986              6.724
 Vibration     2          0.593              1.984              6.058
 Vibration     3          0.594              1.981              5.217
 Vibration     4          0.597              1.973              4.410
 Vibration     5          0.600              1.961              3.835
 Vibration     6          0.604              1.948              3.421
 Vibration     7          0.608              1.936              3.168
 Vibration     8          0.613              1.920              2.897
 Vibration     9          0.624              1.884              2.476
 Vibration    10          0.638              1.840              2.134
 Vibration    11          0.649              1.804              1.923
 Vibration    12          0.656              1.782              1.815
 Vibration    13          0.658              1.778              1.797
 Vibration    14          0.665              1.755              1.697
 Vibration    15          0.674              1.730              1.601
 Vibration    16          0.682              1.706              1.518
 Vibration    17          0.696              1.664              1.389
 Vibration    18          0.711              1.620              1.272
 Vibration    19          0.736              1.552              1.116
 Vibration    20          0.757              1.493              1.003
 Vibration    21          0.766              1.469              0.961
 Vibration    22          0.772              1.455              0.937
 Vibration    23          0.783              1.426              0.891
 Vibration    24          0.805              1.371              0.809
 Vibration    25          0.815              1.345              0.774
 Vibration    26          0.838              1.291              0.706
 Vibration    27          0.892              1.167              0.571
 Vibration    28          0.902              1.147              0.551
 Vibration    29          0.906              1.139              0.543
 Vibration    30          0.974              1.001              0.425

 Optimization completed.
    -- Stationary point found.
 Normal termination of Gaussian 16 at Sun Dec 13 17:14:10 2020.

 ----------------------------------------------------------------------
 # B3LYP/6-311++G(d,p) empiricaldispersion=gd3bj scf=xqc pop=npa geom=c
 heck
 ----------------------------------------------------------------------

 ----------------------------------------
 CID_128769226_JID_10350_Energie_neutraal
 ----------------------------------------
 Structure from the checkpoint file:  "JID_10350.chk"
 Charge =  0 Multiplicity = 1

 SCF Done:  E(RB3LYP) =  -1619.43107289     A.U. after   16 cycles
 Normal termination of Gaussian 16 at Sun Dec 13 17:25:06 2020.

 ----------------------------------------------------------------------
 # B3LYP/6-311++G(d,p) empiricaldispersion=gd3bj scf=xqc pop=npa geom=c
 heck
 ----------------------------------------------------------------------

 --------------------------------------
 CID_128769226_JID_10350_Energie_kation
 --------------------------------------
 Structure from the checkpoint file:  "JID_10350.chk"
 Charge =  1 Multiplicity = 2

 SCF Done:  E(UB3LYP) =  -1619.14312031     A.U. after   33 cycles
 SCF Done:  E(UB3LYP) =  -1619.14312031     a.u. after    1 cycles
 Normal termination of Gaussian 16 at Sun Dec 13 17:56:12 2020.
 Gaussian 16:  ES64L-G16RevA.03 25-Dec-2016

 ----------------------------------------------------------------------
 # B3LYP/6-311++G(d,p) empiricaldispersion=gd3bj scf=xqc pop=npa geom=c
 heck
 ----------------------------------------------------------------------

 -------------------------------------
 CID_128769226_JID_10350_Energie_anion
 -------------------------------------
 Structure from the checkpoint file:  "JID_10350.chk"
 Charge = -1 Multiplicity = 2

                         Standard orientation:
 ---------------------------------------------------------------------
 Center     Atomic      Atomic             Coordinates (Angstroms)
 Number     Number       Type             X           Y           Z
 ---------------------------------------------------------------------
      1          6           0       -4.467724    0.081770    2.037803
      2          6           0       -4.437073    0.113396    0.505966
      3          6           0       -5.088644   -1.120650   -0.139769
      4          6           0       -4.184376   -2.358081   -0.068424
      5          6           0       -2.895413   -2.119906   -0.868562
      6          6           0       -2.301686   -0.784855   -0.546165
      7          7           0       -1.068651   -0.385844   -0.794645
      8          6           0       -1.021043    0.913030   -0.359195
      9          6           0       -2.227550    1.319143    0.154913
     10          7           0       -3.049479    0.222424    0.026220
     11         16           0        0.410758    1.934632   -0.497198
     12          8           0        0.947077    1.802346   -1.854003
     13          8           0        0.029786    3.240707    0.058118
     14          7           0        1.509309    1.280401    0.612574
     15          6           0        2.642255    0.481594    0.098060
     16          6           0        2.178475   -0.944916   -0.213589
     17          6           0        3.305724   -1.804170   -0.784068
     18         16           0        4.707696   -2.006840    0.383597
     19          6           0        5.008385   -0.227144    0.701731
     20          6           0        3.751150    0.516227    1.156593
     21          1           0       -3.952435   -0.802702    2.424676
     22          1           0       -5.503821    0.064614    2.391746
     23          1           0       -3.977460    0.965828    2.456232
     24          1           0       -4.961756    1.011928    0.162280
     25          1           0       -5.311427   -0.899808   -1.191434
     26          1           0       -6.045634   -1.305890    0.359350
     27          1           0       -3.938377   -2.584582    0.976053
     28          1           0       -4.712394   -3.231422   -0.464330
     29          1           0       -2.149032   -2.896792   -0.677050
     30          1           0       -3.117952   -2.159675   -1.944175
     31          1           0       -2.549401    2.258141    0.575332
     32          1           0        1.799513    2.056082    1.205612
     33          1           0        3.027533    0.933877   -0.826413
     34          1           0        1.787489   -1.397192    0.705019
     35          1           0        1.352280   -0.910123   -0.930885
     36          1           0        2.949828   -2.815628   -0.999536
     37          1           0        3.681003   -1.379604   -1.722887
     38          1           0        5.419322    0.236111   -0.203240
     39          1           0        5.780976   -0.185307    1.474817
     40          1           0        4.020476    1.562887    1.362700
     41          1           0        3.377970    0.078660    2.090027
 ---------------------------------------------------------------------

 SCF Done:  E(UB3LYP) =  -1619.42603874     A.U. after   33 cycles
 SCF Done:  E(UB3LYP) =  -1619.42603874     a.u. after    1 cycles

 The electronic state is 2-A.
 Alpha  occ. eigenvalues --  -88.98313 -88.76655 -19.03570 -19.03417 -14.29406
 Alpha  occ. eigenvalues --  -14.26227 -14.22222 -10.15573 -10.14229 -10.14054
 Alpha  occ. eigenvalues --  -10.13444 -10.13266 -10.13097 -10.12744 -10.11240
 Alpha  occ. eigenvalues --  -10.09879 -10.09122 -10.08828 -10.08773 -10.08043
 Alpha  occ. eigenvalues --   -8.04446  -7.85284  -6.00736  -6.00694  -6.00537
 Alpha  occ. eigenvalues --   -5.81665  -5.81333  -5.80646  -1.03752  -0.94941
 Alpha  occ. eigenvalues --   -0.92773  -0.85186  -0.82198  -0.76392  -0.74107
 Alpha  occ. eigenvalues --   -0.69924  -0.69210  -0.68071  -0.66788  -0.61508
 Alpha  occ. eigenvalues --   -0.60256  -0.56133  -0.55584  -0.54630  -0.53286
 Alpha  occ. eigenvalues --   -0.50206  -0.49443  -0.46019  -0.44523  -0.43560
 Alpha  occ. eigenvalues --   -0.43101  -0.40843  -0.40257  -0.39440  -0.38460
 Alpha  occ. eigenvalues --   -0.38187  -0.36473  -0.36394  -0.36210  -0.35266
 Alpha  occ. eigenvalues --   -0.34870  -0.33765  -0.33224  -0.32971  -0.31939
 Alpha  occ. eigenvalues --   -0.30992  -0.29856  -0.29428  -0.28642  -0.28361
 Alpha  occ. eigenvalues --   -0.26778  -0.26248  -0.25584  -0.25325  -0.24940
 Alpha  occ. eigenvalues --   -0.24266  -0.23853  -0.23153  -0.22850  -0.20684
 Alpha  occ. eigenvalues --   -0.20408  -0.19239  -0.15604  -0.15553   0.03506
 Alpha virt. eigenvalues --    0.04536   0.06129   0.06640   0.06739   0.06996
 Alpha virt. eigenvalues --    0.07153   0.07801   0.08215   0.08938   0.09175
 Alpha virt. eigenvalues --    0.09351   0.09840   0.09970   0.10508   0.10682

  Beta  occ. eigenvalues --  -88.98313 -88.76654 -19.03569 -19.03415 -14.29402
  Beta  occ. eigenvalues --  -14.26222 -14.22220 -10.15573 -10.14228 -10.14036
  Beta  occ. eigenvalues --  -10.13433 -10.13264 -10.13090 -10.12742 -10.11229
  Beta  occ. eigenvalues --  -10.09862 -10.09120 -10.08796 -10.08736 -10.07997
  Beta  occ. eigenvalues --   -8.04445  -7.85283  -6.00735  -6.00694  -6.00537
  Beta  occ. eigenvalues --   -5.81665  -5.81332  -5.80645  -1.03749  -0.94931
  Beta  occ. eigenvalues --   -0.92771  -0.85178  -0.82184  -0.76382  -0.74073
  Beta  occ. eigenvalues --   -0.69892  -0.69197  -0.68052  -0.66762  -0.61449
  Beta  occ. eigenvalues --   -0.60226  -0.56113  -0.55545  -0.54601  -0.53225
  Beta  occ. eigenvalues --   -0.50192  -0.49429  -0.45977  -0.44489  -0.43544
  Beta  occ. eigenvalues --   -0.43066  -0.40815  -0.40220  -0.39424  -0.38449
  Beta  occ. eigenvalues --   -0.38171  -0.36460  -0.36364  -0.36192  -0.35226
  Beta  occ. eigenvalues --   -0.34822  -0.33719  -0.33203  -0.32962  -0.31931
  Beta  occ. eigenvalues --   -0.30939  -0.29805  -0.29414  -0.28618  -0.28338
  Beta  occ. eigenvalues --   -0.26772  -0.26193  -0.25528  -0.25289  -0.24918
  Beta  occ. eigenvalues --   -0.24256  -0.23844  -0.23146  -0.22846  -0.20672
  Beta  occ. eigenvalues --   -0.20400  -0.19227  -0.15595  -0.15543
  Beta virt. eigenvalues --    0.04873   0.05993   0.06513   0.06908   0.06984
  Beta virt. eigenvalues --    0.07311   0.07467   0.08132   0.08854   0.09107
  Beta virt. eigenvalues --    0.09395   0.09574   0.09896   0.10274   0.10612

 Mulliken charges and spin densities:
               1          2
     1  C    2.279459  -2.808472
     2  C   -1.036098   1.099480
     3  C   -0.166681  -0.284415
     4  C    0.398800  -0.701941
     5  C   -1.328875   0.899833
     6  C   -0.012261  -0.824737
     7  N    0.157693   0.042839
     8  C    1.014413  -1.570531
     9  C   -1.238199   1.000118
    10  N    0.303377  -0.120146
    11  S    1.634313  -0.488311
    12  O   -0.050007  -0.002771
    13  O   -0.190674   0.004499
    14  N   -0.045594   0.034326
    15  C   -0.802312  -0.153909
    16  C    0.301504  -0.087788
    17  C   -0.600955   0.011011
    18  S    0.052061   0.005118
    19  C   -0.245665  -0.301858
    20  C   -0.292016   0.028572
    21  H   -0.105257   0.264574
    22  H   -0.428115   0.589598
    23  H   -0.036696   0.183650
    24  H   -0.478119   0.716827
    25  H   -0.087844   0.249348
    26  H   -0.708254   0.921491
    27  H    0.051760   0.072502
    28  H   -0.685707   0.908302
    29  H    0.078962   0.079446
    30  H   -0.049067   0.248956
    31  H   -0.109266   0.327329
    32  H    0.233542   0.079637
    33  H    0.230052   0.007965
    34  H    0.103702   0.063489
    35  H    0.284090  -0.036144
    36  H    0.182631   0.020298
    37  H    0.187399   0.017285
    38  H    0.161827   0.010559
    39  H   -0.024757   0.256931
    40  H   -0.049160   0.185899
    41  H    0.115995   0.051144
 Sum of Mulliken charges =  -1.00000   1.00000

 Dipole moment (field-independent basis, Debye):
    X=             11.4625    Y=              0.8092    Z=             -0.3788  Tot=             11.4973
 Quadrupole moment (field-independent basis, Debye-Ang):
   XX=           -275.9334   YY=           -190.8781   ZZ=           -173.7663
   XY=            -10.4564   XZ=              7.4200   YZ=              3.4694

 Summary of Natural Population Analysis:

                                       Natural Population
                Natural  -----------------------------------------------
    Atom  No    Charge         Core      Valence    Rydberg      Total
 -----------------------------------------------------------------------
      C    1   -0.28702      0.99964     2.28179    0.00560     3.28702
      C    2   -0.00050      0.99959     1.98836    0.01255     3.00050
      C    3   -0.19348      0.99961     2.18415    0.00971     3.19348
      C    4   -0.18979      0.99963     2.18112    0.00904     3.18979
      C    5   -0.20966      0.99959     2.20080    0.00927     3.20966
      C    6    0.21076      0.99960     1.77334    0.01631     2.78924
      N    7   -0.25767      0.99965     2.74799    0.01003     3.75767
      C    8   -0.07718      0.99938     2.05890    0.01890     3.07718
      C    9   -0.00813      0.99947     1.99761    0.01105     3.00813
      N   10   -0.20335      0.99961     2.69323    0.01051     3.70335
      S   11    1.10274      4.99918     1.79622    0.10186     6.89726
      O   12   -0.45708      0.99991     3.45205    0.00513     4.45708
      O   13   -0.46860      0.99991     3.46352    0.00517     4.46860
      N   14   -0.43322      0.99973     2.92130    0.01219     3.93322
      C   15   -0.01757      0.99956     2.00315    0.01486     3.01757
      C   16   -0.20833      0.99959     2.19904    0.00969     3.20833
      C   17   -0.24638      0.99959     2.23821    0.00857     3.24638
      S   18    0.08285      4.99964     2.89960    0.01791     7.91715
      C   19   -0.25206      0.99959     2.23995    0.01252     3.25206
      C   20   -0.20106      0.99960     2.19017    0.01130     3.20106
      H   21    0.10058      0.00000     0.39819    0.00123     0.39942
      H   22    0.10891      0.00000     0.38919    0.00190     0.39109
      H   23    0.10224      0.00000     0.39660    0.00116     0.39776
      H   24    0.10332      0.00000     0.39422    0.00246     0.39668
      H   25    0.10137      0.00000     0.39669    0.00194     0.39863
      H   26    0.11265      0.00000     0.38370    0.00365     0.38735
      H   27    0.09731      0.00000     0.40120    0.00149     0.40269
      H   28    0.10762      0.00000     0.39026    0.00211     0.39238
      H   29    0.11275      0.00000     0.38609    0.00116     0.38725
      H   30    0.10875      0.00000     0.38996    0.00129     0.39125
      H   31    0.11676      0.00000     0.38222    0.00102     0.38324
      H   32    0.19652      0.00000     0.30094    0.00253     0.30348
      H   33    0.09802      0.00000     0.40013    0.00185     0.40198
      H   34    0.10329      0.00000     0.39509    0.00162     0.39671
      H   35    0.12339      0.00000     0.37484    0.00177     0.37661
      H   36    0.10933      0.00000     0.38966    0.00101     0.39067
      H   37    0.09920      0.00000     0.39938    0.00142     0.40080
      H   38    0.09891      0.00000     0.39973    0.00135     0.40109
      H   39    0.10914      0.00000     0.38979    0.00106     0.39086
      H   40    0.10041      0.00000     0.39818    0.00141     0.39959
      H   41    0.10425      0.00000     0.39413    0.00162     0.39575
 =======================================================================
   * Total *    0.00000     27.99207    55.66070    0.34723    84.00000

 Normal termination of Gaussian 16 at Sun Dec 13 18:26:49 2020.
