 Gaussian 16, Revision A.03,

 -----------------------------------------------------------
 # opt freq B3LYP/6-31G(d) empiricaldispersion=gd3bj scf=xqc
 -----------------------------------------------------------

 -------------------------------
 CID_151998892_JID_2137_neutraal
 -------------------------------
 Symbolic Z-matrix:
 Charge =  0 Multiplicity = 1

 SCF Done:  E(RB3LYP) =  -582.979963980     A.U. after   17 cycles
 SCF Done:  E(RB3LYP) =  -583.005962171     A.U. after   14 cycles
 SCF Done:  E(RB3LYP) =  -583.007917123     A.U. after   14 cycles
 SCF Done:  E(RB3LYP) =  -583.009019018     A.U. after   14 cycles
 SCF Done:  E(RB3LYP) =  -583.009401999     A.U. after   14 cycles
 SCF Done:  E(RB3LYP) =  -583.009927767     A.U. after   13 cycles
 SCF Done:  E(RB3LYP) =  -583.010080340     A.U. after   13 cycles
 SCF Done:  E(RB3LYP) =  -583.010177673     A.U. after   12 cycles
 SCF Done:  E(RB3LYP) =  -583.010217972     A.U. after   12 cycles
 SCF Done:  E(RB3LYP) =  -583.010235939     A.U. after   12 cycles
 SCF Done:  E(RB3LYP) =  -583.010244565     A.U. after   12 cycles
 SCF Done:  E(RB3LYP) =  -583.010248008     A.U. after    9 cycles
 SCF Done:  E(RB3LYP) =  -583.010249653     A.U. after    9 cycles
 SCF Done:  E(RB3LYP) =  -583.010249833     A.U. after    8 cycles
 SCF Done:  E(RB3LYP) =  -583.010249874     A.U. after    8 cycles
 Optimization completed.
    -- Stationary point found.
 Normal termination of Gaussian 16 at Wed Dec  9 16:50:05 2020.

 --------------------------------------------------------------------
 #N Geom=AllCheck Guess=TCheck SCRF=Check GenChk RB3LYP/6-31G(d) Freq
 --------------------------------------------------------------------

 Structure from the checkpoint file:  "JID_2137.chk"
 -------------------------------
 CID_151998892_JID_2137_neutraal
 -------------------------------
 Charge =  0 Multiplicity = 1

 SCF Done:  E(RB3LYP) =  -583.010249874     A.U. after    1 cycles

  Exact polarizability: 127.031  -3.996  88.363   4.166   0.239  71.581
 Approx polarizability: 201.705 -21.238 130.191  16.892  -2.836 115.207

                      1                      2                      3
                      A                      A                      A
 Frequencies --     29.3724                64.4039                71.9575
 Red. masses --      8.2815                 3.6450                 5.5364
 Frc consts  --      0.0042                 0.0089                 0.0169
 IR Inten    --      3.5388                 0.9962                 3.5212

                      4                      5                      6
                      A                      A                      A
 Frequencies --    107.9814               122.5001               130.2120
 Red. masses --      8.0155                 6.1985                 6.5620
 Frc consts  --      0.0551                 0.0548                 0.0656
 IR Inten    --      0.6147                 1.3223                 1.4963

                      7                      8                      9
                      A                      A                      A
 Frequencies --    215.8560               236.8883               246.6041
 Red. masses --      2.3415                 1.5933                 1.6782
 Frc consts  --      0.0643                 0.0527                 0.0601
 IR Inten    --      2.8210                 1.6246                 3.9479

                     10                     11                     12
                      A                      A                      A
 Frequencies --    259.2630               309.0421               315.9788
 Red. masses --      1.6746                 6.4617                 2.8994
 Frc consts  --      0.0663                 0.3636                 0.1706
 IR Inten    --      1.4892                 2.8718                 1.5228

                     13                     14                     15
                      A                      A                      A
 Frequencies --    375.8875               425.1231               463.8379
 Red. masses --      2.4125                 4.4200                 2.9741
 Frc consts  --      0.2008                 0.4707                 0.3770
 IR Inten    --      0.1275                 5.4058                 1.7997

                     16                     17                     18
                      A                      A                      A
 Frequencies --    491.3508               530.0995               559.6422
 Red. masses --      5.8297                 4.3858                 5.4921
 Frc consts  --      0.8292                 0.7261                 1.0135
 IR Inten    --      2.6680                 7.2651                 6.0371

                     19                     20                     21
                      A                      A                      A
 Frequencies --    575.8352               714.3274               732.3807
 Red. masses --     13.9419                 6.4643                10.5182
 Frc consts  --      2.7238                 1.9434                 3.3240
 IR Inten    --      7.9346                24.0863                29.4345

                     22                     23                     24
                      A                      A                      A
 Frequencies --    815.6548               891.7707               921.4373
 Red. masses --      3.6882                 4.3657                 5.1360
 Frc consts  --      1.4457                 2.0455                 2.5692
 IR Inten    --      3.3587                13.0986                14.3895

                     25                     26                     27
                      A                      A                      A
 Frequencies --    946.9194               951.2164               964.9914
 Red. masses --      2.0103                 1.3138                 1.5518
 Frc consts  --      1.0620                 0.7004                 0.8514
 IR Inten    --      2.7971                 4.9347                 0.2601

                     28                     29                     30
                      A                      A                      A
 Frequencies --   1017.0706              1159.8146              1166.3405
 Red. masses --      2.1812                 2.1452                 2.1539
 Frc consts  --      1.3294                 1.7002                 1.7263
 IR Inten    --    101.4493                15.8891                11.5092

                     31                     32                     33
                      A                      A                      A
 Frequencies --   1193.5132              1248.5631              1266.2306
 Red. masses --      2.3621                 2.5531                 1.6898
 Frc consts  --      1.9825                 2.3450                 1.5963
 IR Inten    --      6.8406               135.4415               109.0183

                     34                     35                     36
                      A                      A                      A
 Frequencies --   1327.1523              1368.5528              1382.4439
 Red. masses --      9.8956                 1.3663                 1.6846
 Frc consts  --     10.2691                 1.5077                 1.8969
 IR Inten    --    482.6029                 5.4777               222.2695

                     37                     38                     39
                      A                      A                      A
 Frequencies --   1399.7130              1426.3348              1443.5677
 Red. masses --      1.3452                 1.2607                 1.2509
 Frc consts  --      1.5528                 1.5112                 1.5358
 IR Inten    --     11.1735                11.5595                34.5221

                     40                     41                     42
                      A                      A                      A
 Frequencies --   1474.5845              1502.7139              1511.6287
 Red. masses --      1.3452                 1.2638                 1.0425
 Frc consts  --      1.7233                 1.6814                 1.4035
 IR Inten    --     41.3165                97.6819                 0.8568

                     43                     44                     45
                      A                      A                      A
 Frequencies --   1527.3765              1531.8449              1550.9538
 Red. masses --      1.0527                 1.0489                 1.0619
 Frc consts  --      1.4469                 1.4502                 1.5049
 IR Inten    --     13.1330                 0.6538                 7.9828

                     46                     47                     48
                      A                      A                      A
 Frequencies --   1790.4569              2312.2393              2371.1498
 Red. masses --     11.0825                13.9903                12.5791
 Frc consts  --     20.9322                44.0701                41.6694
 IR Inten    --    280.6920               582.4118                 0.5676

                     49                     50                     51
                      A                      A                      A
 Frequencies --   3061.4197              3064.4290              3069.1841
 Red. masses --      1.0513                 1.0619                 1.0434
 Frc consts  --      5.8054                 5.8752                 5.7910
 IR Inten    --     17.9852                10.3191                14.4247

                     52                     53                     54
                      A                      A                      A
 Frequencies --   3075.9996              3125.4231              3134.4495
 Red. masses --      1.0715                 1.1027                 1.1022
 Frc consts  --      5.9732                 6.3461                 6.3801
 IR Inten    --     26.5792                22.9947                25.6511

                     55                     56                     57
                      A                      A                      A
 Frequencies --   3155.6835              3164.7134              3171.4367
 Red. masses --      1.0941                 1.1020                 1.0999
 Frc consts  --      6.4196                 6.5030                 6.5179
 IR Inten    --      1.7938                 4.4350                11.0870

 - Thermochemistry -
 -------------------
 Temperature   298.150 Kelvin.  Pressure   1.00000 Atm.
 Atom     1 has atomic number  6 and mass  12.00000

 Molecular mass:   167.08071 amu.
 Principal axes and moments of inertia in atomic units:
                           1         2         3
     Eigenvalues --  1533.417112499.995593450.25367
           X            0.99773   0.06729  -0.00269
           Y           -0.06731   0.99769  -0.00899
           Z            0.00208   0.00915   0.99996
 This molecule is an asymmetric top.
 Rotational symmetry number  1.
 Warning -- assumption of classical behavior for rotation
           may cause significant error
 Rotational temperatures (Kelvin)      0.05648     0.03465     0.02510
 Rotational constants (GHZ):           1.17694     0.72190     0.52307
 Zero-point vibrational energy     427458.7 (Joules/Mol)
                                  102.16509 (Kcal/Mol)
 Warning -- explicit consideration of  19 degrees of freedom as
           vibrations may cause significant error
 Vibrational temperatures:     42.26    92.66   103.53   155.36   176.25
          (Kelvin)            187.35   310.57   340.83   354.81   373.02
                              444.64   454.62   540.82   611.66   667.36
                              706.94   762.69   805.20   828.50  1027.76
                             1053.73  1173.55  1283.06  1325.74  1362.41
                             1368.59  1388.41  1463.34  1668.71  1678.10
                             1717.20  1796.40  1821.82  1909.48  1969.04
                             1989.03  2013.87  2052.18  2076.97  2121.60
                             2162.07  2174.90  2197.55  2203.98  2231.48
                             2576.07  3326.80  3411.56  4404.70  4409.03
                             4415.87  4425.68  4496.79  4509.77  4540.32
                             4553.32  4562.99

 Zero-point correction=                           0.162810 (Hartree/Particle)
 Thermal correction to Energy=                    0.175397
 Thermal correction to Enthalpy=                  0.176341
 Thermal correction to Gibbs Free Energy=         0.122864
 Sum of electronic and zero-point Energies=           -582.847439
 Sum of electronic and thermal Energies=              -582.834853
 Sum of electronic and thermal Enthalpies=            -582.833909
 Sum of electronic and thermal Free Energies=         -582.887386

                     E (Thermal)             CV                S
                      KCal/Mol        Cal/Mol-Kelvin    Cal/Mol-Kelvin
 Total                  110.063             43.975            112.552
 Electronic               0.000              0.000              0.000
 Translational            0.889              2.981             41.248
 Rotational               0.889              2.981             30.959
 Vibrational            108.286             38.013             40.345
 Vibration     1          0.593              1.984              5.871
 Vibration     2          0.597              1.971              4.317
 Vibration     3          0.598              1.967              4.099
 Vibration     4          0.606              1.943              3.305
 Vibration     5          0.610              1.930              3.061
 Vibration     6          0.612              1.923              2.943
 Vibration     7          0.645              1.817              1.994
 Vibration     8          0.656              1.784              1.826
 Vibration     9          0.661              1.768              1.755
 Vibration    10          0.668              1.747              1.667
 Vibration    11          0.698              1.656              1.367
 Vibration    12          0.703              1.643              1.331
 Vibration    13          0.747              1.521              1.056
 Vibration    14          0.787              1.416              0.875
 Vibration    15          0.821              1.330              0.755
 Vibration    16          0.847              1.269              0.680
 Vibration    17          0.885              1.183              0.587
 Vibration    18          0.915              1.119              0.525
 Vibration    19          0.932              1.084              0.493

 Optimization completed.
    -- Stationary point found.
 Normal termination of Gaussian 16 at Wed Dec  9 16:54:39 2020.

 ----------------------------------------------------------------------
 # B3LYP/6-311++G(d,p) empiricaldispersion=gd3bj scf=xqc pop=npa geom=c
 heck
 ----------------------------------------------------------------------

 ---------------------------------------
 CID_151998892_JID_2137_Energie_neutraal
 ---------------------------------------
 Structure from the checkpoint file:  "JID_2137.chk"
 Charge =  0 Multiplicity = 1

 SCF Done:  E(RB3LYP) =  -583.176485594     A.U. after   16 cycles
 Normal termination of Gaussian 16 at Wed Dec  9 16:56:22 2020.

 ----------------------------------------------------------------------
 # B3LYP/6-311++G(d,p) empiricaldispersion=gd3bj scf=xqc pop=npa geom=c
 heck
 ----------------------------------------------------------------------

 -------------------------------------
 CID_151998892_JID_2137_Energie_kation
 -------------------------------------
 Structure from the checkpoint file:  "JID_2137.chk"
 Charge =  1 Multiplicity = 2

 SCF Done:  E(UB3LYP) =  -582.823063512     A.U. after   27 cycles
 Normal termination of Gaussian 16 at Wed Dec  9 17:00:03 2020.
 Gaussian 16:  ES64L-G16RevA.03 25-Dec-2016

 ----------------------------------------------------------------------
 # B3LYP/6-311++G(d,p) empiricaldispersion=gd3bj scf=xqc pop=npa geom=c
 heck
 ----------------------------------------------------------------------

 ------------------------------------
 CID_151998892_JID_2137_Energie_anion
 ------------------------------------
 Structure from the checkpoint file:  "JID_2137.chk"
 Charge = -1 Multiplicity = 2

                         Standard orientation:
 ---------------------------------------------------------------------
 Center     Atomic      Atomic             Coordinates (Angstroms)
 Number     Number       Type             X           Y           Z
 ---------------------------------------------------------------------
      1          6           0       -1.581090   -2.254965   -0.819852
      2          6           0       -1.659032   -0.884242   -0.143065
      3          6           0       -1.889747   -0.970253    1.368744
      4          7           0       -0.474214   -0.046451   -0.474909
      5          6           0       -0.729211    1.266120   -1.048937
      6          6           0       -1.317955    2.200677   -0.069720
      7          7           0       -1.794363    2.907854    0.716894
      8          6           0        0.763398   -0.422037   -0.035831
      9          8           0        1.022511   -1.468493    0.531329
     10          7           0        1.759759    0.573199   -0.344793
     11          7           0        2.902705    0.262118    0.033195
     12          7           0        3.976896    0.073797    0.338585
     13          1           0       -0.761592   -2.844557   -0.405643
     14          1           0       -1.427956   -2.147833   -1.899033
     15          1           0       -2.520149   -2.794815   -0.658224
     16          1           0       -2.500836   -0.337501   -0.581833
     17          1           0       -1.070850   -1.506199    1.852931
     18          1           0       -1.970686    0.029587    1.805976
     19          1           0       -2.823534   -1.507392    1.565877
     20          1           0        0.201783    1.688572   -1.428207
     21          1           0       -1.419919    1.162664   -1.893314
 ---------------------------------------------------------------------

 SCF Done:  E(UB3LYP) =  -583.178725309     A.U. after   32 cycles

 The electronic state is 2-A.
 Alpha  occ. eigenvalues --  -18.98415 -14.32780 -14.24673 -14.24367 -14.23391
 Alpha  occ. eigenvalues --  -14.21462 -10.19177 -10.14168 -10.11561 -10.11246
 Alpha  occ. eigenvalues --  -10.05876 -10.05684  -1.01198  -0.94630  -0.85323
 Alpha  occ. eigenvalues --   -0.84218  -0.80739  -0.69344  -0.64873  -0.58999
 Alpha  occ. eigenvalues --   -0.56985  -0.49247  -0.45274  -0.41549  -0.39482
 Alpha  occ. eigenvalues --   -0.38197  -0.37031  -0.36392  -0.33703  -0.33118
 Alpha  occ. eigenvalues --   -0.32487  -0.32242  -0.30194  -0.27917  -0.27876
 Alpha  occ. eigenvalues --   -0.27157  -0.25315  -0.24619  -0.24262  -0.23434
 Alpha  occ. eigenvalues --   -0.21666  -0.16051  -0.15534  -0.14394   0.04438
 Alpha virt. eigenvalues --    0.06595   0.08131   0.09319   0.09564   0.09861
 Alpha virt. eigenvalues --    0.11124   0.11369   0.12126   0.12689   0.13262
 Alpha virt. eigenvalues --    0.13587   0.14137   0.15360   0.15607   0.15942

  Beta  occ. eigenvalues --  -18.98416 -14.32334 -14.24679 -14.23872 -14.23454
  Beta  occ. eigenvalues --  -14.21439 -10.19083 -10.14105 -10.11537 -10.11239
  Beta  occ. eigenvalues --  -10.05870 -10.05663  -1.00463  -0.94513  -0.85279
  Beta  occ. eigenvalues --   -0.83902  -0.80695  -0.69283  -0.64730  -0.58967
  Beta  occ. eigenvalues --   -0.56725  -0.48987  -0.45212  -0.41336  -0.39016
  Beta  occ. eigenvalues --   -0.37826  -0.36577  -0.35544  -0.33646  -0.32956
  Beta  occ. eigenvalues --   -0.32258  -0.31154  -0.30143  -0.27867  -0.27832
  Beta  occ. eigenvalues --   -0.27116  -0.25277  -0.24536  -0.24071  -0.23318
  Beta  occ. eigenvalues --   -0.21036  -0.16022  -0.15252  -0.14297
  Beta virt. eigenvalues --    0.07317   0.08793   0.09444   0.09754   0.10326
  Beta virt. eigenvalues --    0.10767   0.11363   0.12012   0.12572   0.12813
  Beta virt. eigenvalues --    0.13406   0.13685   0.14064   0.15549   0.15601

 Mulliken charges and spin densities:
               1          2
     1  C    0.170675  -0.692244
     2  C   -0.513824   0.462854
     3  C    0.000216  -0.534144
     4  N    0.081415   0.164261
     5  C    0.354757  -0.781982
     6  C    0.637784  -0.421640
     7  N   -0.359999   0.023116
     8  C    0.211150  -0.197766
     9  O   -0.334998  -0.004051
    10  N   -0.246028  -0.022063
    11  N    0.573970  -0.041628
    12  N   -0.456974   0.393489
    13  H    0.155806   0.014376
    14  H   -0.130811   0.288103
    15  H   -0.145184   0.277005
    16  H   -0.390844   0.570482
    17  H    0.155660   0.017146
    18  H    0.162890  -0.025666
    19  H   -0.008464   0.138211
    20  H   -0.079097   0.314413
    21  H   -0.838097   1.057729
 Sum of Mulliken charges =  -1.00000   1.00000

 Dipole moment (field-independent basis, Debye):
    X=             -0.2721    Y=             -1.8259    Z=              1.6890  Tot=              2.5022
 Quadrupole moment (field-independent basis, Debye-Ang):
   XX=           -125.9488   YY=           -103.1365   ZZ=            -95.8615
   XY=              7.1617   XZ=             -9.3574   YZ=             -1.6947

 Summary of Natural Population Analysis:

                                       Natural Population
                Natural  -----------------------------------------------
    Atom  No    Charge         Core      Valence    Rydberg      Total
 -----------------------------------------------------------------------
      C    1   -0.29038      0.99963     2.28435    0.00639     3.29038
      C    2   -0.00291      0.99960     1.98983    0.01347     3.00291
      C    3   -0.29493      0.99963     2.28944    0.00586     3.29493
      N    4   -0.26139      0.99962     2.74749    0.01428     3.76139
      C    5   -0.14023      0.99951     2.12857    0.01215     3.14023
      C    6    0.15897      0.99964     1.82537    0.01601     2.84103
      N    7   -0.18496      0.99979     2.67392    0.01125     3.68496
      C    8    0.40948      0.99964     1.56581    0.02507     2.59052
      O    9   -0.33230      0.99987     3.32750    0.00493     4.33230
      N   10   -0.24998      0.99968     2.73810    0.01220     3.74998
      N   11    0.16907      0.99971     2.31515    0.01607     3.33093
      N   12    0.03718      0.99981     2.45101    0.01200     3.46282
      H   13    0.11074      0.00000     0.38833    0.00093     0.38926
      H   14    0.10294      0.00000     0.39590    0.00116     0.39706
      H   15    0.09709      0.00000     0.40216    0.00075     0.40291
      H   16    0.09893      0.00000     0.39790    0.00317     0.40107
      H   17    0.10990      0.00000     0.38924    0.00085     0.39010
      H   18    0.10493      0.00000     0.39437    0.00071     0.39507
      H   19    0.09726      0.00000     0.40209    0.00065     0.40274
      H   20    0.13882      0.00000     0.35893    0.00225     0.36118
      H   21    0.12175      0.00000     0.37180    0.00645     0.37825
 =======================================================================
   * Total *   -0.00000     11.99614    31.83726    0.16660    44.00000

 Normal termination of Gaussian 16 at Wed Dec  9 17:04:14 2020.
