 Gaussian 16, Revision A.03,

 -----------------------------------------------------------
 # opt freq B3LYP/6-31G(d) empiricaldispersion=gd3bj scf=xqc
 -----------------------------------------------------------

 -------------------------------
 CID_116421980_JID_4333_neutraal
 -------------------------------
 Symbolic Z-matrix:
 Charge =  0 Multiplicity = 1

 SCF Done:  E(RB3LYP) =  -1285.40642157     A.U. after   13 cycles
 SCF Done:  E(RB3LYP) =  -1285.40365860     A.U. after   12 cycles
 SCF Done:  E(RB3LYP) =  -1285.41202867     A.U. after   11 cycles
 SCF Done:  E(RB3LYP) =  -1285.41194973     A.U. after   11 cycles
 SCF Done:  E(RB3LYP) =  -1285.41269633     A.U. after   11 cycles
 SCF Done:  E(RB3LYP) =  -1285.41302730     A.U. after   11 cycles
 SCF Done:  E(RB3LYP) =  -1285.41329705     A.U. after   10 cycles
 SCF Done:  E(RB3LYP) =  -1285.41321617     A.U. after   10 cycles
 SCF Done:  E(RB3LYP) =  -1285.41333650     A.U. after   10 cycles
 SCF Done:  E(RB3LYP) =  -1285.41334520     A.U. after    9 cycles
 SCF Done:  E(RB3LYP) =  -1285.41334619     A.U. after    8 cycles
 SCF Done:  E(RB3LYP) =  -1285.41334730     A.U. after    8 cycles
 SCF Done:  E(RB3LYP) =  -1285.41334768     A.U. after    7 cycles
 SCF Done:  E(RB3LYP) =  -1285.41334780     A.U. after    6 cycles
 Optimization completed.
    -- Stationary point found.
 Normal termination of Gaussian 16 at Thu Dec 10 09:31:33 2020.

 --------------------------------------------------------------------
 #N Geom=AllCheck Guess=TCheck SCRF=Check GenChk RB3LYP/6-31G(d) Freq
 --------------------------------------------------------------------

 Structure from the checkpoint file:  "JID_4333.chk"
 -------------------------------
 CID_116421980_JID_4333_neutraal
 -------------------------------
 Charge =  0 Multiplicity = 1

 SCF Done:  E(RB3LYP) =  -1285.41334780     A.U. after    1 cycles

  Exact polarizability: 164.805  -7.317 149.442  -4.709   3.974 149.461
 Approx polarizability: 210.452 -10.118 224.751  -8.505   8.464 225.981

                      1                      2                      3
                      A                      A                      A
 Frequencies --     27.0979                42.5945                59.8276
 Red. masses --      4.6683                 3.2909                 3.6098
 Frc consts  --      0.0020                 0.0035                 0.0076
 IR Inten    --      0.3956                 0.3558                 0.9388

                      4                      5                      6
                      A                      A                      A
 Frequencies --     81.5049                98.0690               126.5832
 Red. masses --      5.4943                 3.8715                 2.9010
 Frc consts  --      0.0215                 0.0219                 0.0274
 IR Inten    --      0.9624                 1.8126                 1.4952

                      7                      8                      9
                      A                      A                      A
 Frequencies --    144.5434               173.8478               198.0796
 Red. masses --      3.0743                 3.0666                 1.9118
 Frc consts  --      0.0378                 0.0546                 0.0442
 IR Inten    --      3.1384                 5.1340                 4.8805

                     10                     11                     12
                      A                      A                      A
 Frequencies --    212.2459               216.4786               221.4791
 Red. masses --      1.2191                 2.6186                 1.3479
 Frc consts  --      0.0324                 0.0723                 0.0390
 IR Inten    --      0.3446                 1.3158                 6.0120

                     13                     14                     15
                      A                      A                      A
 Frequencies --    246.5707               259.4076               272.4512
 Red. masses --      1.9233                 1.4264                 1.8232
 Frc consts  --      0.0689                 0.0566                 0.0797
 IR Inten    --      1.9266                 4.6491                 2.3136

                     16                     17                     18
                      A                      A                      A
 Frequencies --    282.4462               292.8468               303.0153
 Red. masses --      1.3782                 1.5759                 1.2802
 Frc consts  --      0.0648                 0.0796                 0.0693
 IR Inten    --      1.0983                 0.3120                 0.1519

                     19                     20                     21
                      A                      A                      A
 Frequencies --    312.8997               317.6205               354.1072
 Red. masses --      1.9690                 1.9423                 2.8122
 Frc consts  --      0.1136                 0.1154                 0.2078
 IR Inten    --      1.5200                 0.8629                 2.7261

                     22                     23                     24
                      A                      A                      A
 Frequencies --    356.2803               399.5307               430.4454
 Red. masses --      2.3812                 1.7763                 1.8587
 Frc consts  --      0.1781                 0.1671                 0.2029
 IR Inten    --     11.7585                 0.6304                 0.7211

                     25                     26                     27
                      A                      A                      A
 Frequencies --    444.3903               451.6026               491.0700
 Red. masses --      2.2426                 2.6594                 1.7634
 Frc consts  --      0.2609                 0.3196                 0.2505
 IR Inten    --      0.3551                 0.3253                 0.0742

                     28                     29                     30
                      A                      A                      A
 Frequencies --    552.4791               607.4092               636.5485
 Red. masses --      2.6458                 2.4892                 3.8055
 Frc consts  --      0.4758                 0.5411                 0.9085
 IR Inten    --      5.5972                 5.3961                 1.0937

                     31                     32                     33
                      A                      A                      A
 Frequencies --    695.7634               717.6462               755.3275
 Red. masses --      2.8118                 5.4282                 3.1023
 Frc consts  --      0.8020                 1.6471                 1.0428
 IR Inten    --      6.9407                 1.3784                 0.6189

                     34                     35                     36
                      A                      A                      A
 Frequencies --    774.1337               791.2635               834.9230
 Red. masses --      2.8650                 1.6934                 2.0570
 Frc consts  --      1.0116                 0.6247                 0.8449
 IR Inten    --      6.6192                 3.4292                 4.8796

                     37                     38                     39
                      A                      A                      A
 Frequencies --    886.6818               904.2955               916.5252
 Red. masses --      2.1608                 2.2076                 1.8799
 Frc consts  --      1.0009                 1.0636                 0.9304
 IR Inten    --      7.7499                 6.8931                 1.5453

                     40                     41                     42
                      A                      A                      A
 Frequencies --    919.1513               948.4652               962.5975
 Red. masses --      1.9495                 1.4963                 1.3498
 Frc consts  --      0.9704                 0.7931                 0.7369
 IR Inten    --     16.0458                 2.3865                 1.3471

                     43                     44                     45
                      A                      A                      A
 Frequencies --   1006.9619              1011.1257              1017.7409
 Red. masses --      1.8218                 1.2759                 1.4953
 Frc consts  --      1.0884                 0.7685                 0.9126
 IR Inten    --      4.9789                 5.5205                12.8836

                     46                     47                     48
                      A                      A                      A
 Frequencies --   1020.7408              1034.7088              1062.0197
 Red. masses --      1.3533                 1.5659                 1.4722
 Frc consts  --      0.8307                 0.9877                 0.9783
 IR Inten    --     25.5221                 8.6826                 5.4430

                     49                     50                     51
                      A                      A                      A
 Frequencies --   1080.1722              1110.6567              1134.1743
 Red. masses --      1.7476                 1.9257                 2.2487
 Frc consts  --      1.2014                 1.3996                 1.7043
 IR Inten    --     30.5300                13.5714                11.6646

                     52                     53                     54
                      A                      A                      A
 Frequencies --   1162.0448              1172.1556              1193.3447
 Red. masses --      1.3676                 1.7064                 1.6314
 Frc consts  --      1.0880                 1.3813                 1.3688
 IR Inten    --      6.0994                 6.1331                16.7031

                     55                     56                     57
                      A                      A                      A
 Frequencies --   1214.5751              1229.6356              1265.4122
 Red. masses --      2.1200                 1.3345                 1.5066
 Frc consts  --      1.8426                 1.1888                 1.4214
 IR Inten    --      3.1146                 9.9998                13.3925

                     58                     59                     60
                      A                      A                      A
 Frequencies --   1272.8754              1306.7869              1318.5677
 Red. masses --      2.4146                 1.4580                 1.7630
 Frc consts  --      2.3050                 1.4669                 1.8060
 IR Inten    --      0.2352                 4.7594                21.8995

                     61                     62                     63
                      A                      A                      A
 Frequencies --   1333.8982              1346.9051              1382.6764
 Red. masses --      1.3783                 1.2343                 1.2405
 Frc consts  --      1.4449                 1.3193                 1.3973
 IR Inten    --     26.2737                 7.4299                12.4715

                     64                     65                     66
                      A                      A                      A
 Frequencies --   1387.7355              1401.5650              1408.8541
 Red. masses --      1.4994                 1.2526                 1.3057
 Frc consts  --      1.7013                 1.4497                 1.5269
 IR Inten    --      3.6012                22.6573                 1.8432

                     67                     68                     69
                      A                      A                      A
 Frequencies --   1415.0875              1427.4891              1428.6240
 Red. masses --      1.3209                 1.2272                 1.2393
 Frc consts  --      1.5584                 1.4734                 1.4903
 IR Inten    --     10.8869                 7.0687                 4.3442

                     70                     71                     72
                      A                      A                      A
 Frequencies --   1439.3131              1452.9780              1484.7382
 Red. masses --      1.2862                 1.2198                 1.1181
 Frc consts  --      1.5699                 1.5172                 1.4523
 IR Inten    --     13.0512                11.7147                 3.5294

                     73                     74                     75
                      A                      A                      A
 Frequencies --   1488.7164              1496.5910              1497.2401
 Red. masses --      1.0870                 1.0620                 1.0791
 Frc consts  --      1.4194                 1.4014                 1.4252
 IR Inten    --      4.8840                 0.0464                10.8739

                     76                     77                     78
                      A                      A                      A
 Frequencies --   1506.2070              1522.5126              1522.9756
 Red. masses --      1.1078                 1.0526                 1.0487
 Frc consts  --      1.4807                 1.4376                 1.4331
 IR Inten    --      5.8089                 1.0544                 3.7935

                     79                     80                     81
                      A                      A                      A
 Frequencies --   1524.3724              1528.1517              1534.0651
 Red. masses --      1.0497                 1.0574                 1.0691
 Frc consts  --      1.4371                 1.4548                 1.4824
 IR Inten    --      8.4855                 4.4688                 8.2532

                     82                     83                     84
                      A                      A                      A
 Frequencies --   1536.9577              1540.8431              1547.2648
 Red. masses --      1.0547                 1.0548                 1.0596
 Frc consts  --      1.4679                 1.4755                 1.4946
 IR Inten    --      7.4811                 8.0043                23.8389

                     85                     86                     87
                      A                      A                      A
 Frequencies --   1549.9503              1561.4569              2687.2876
 Red. masses --      1.0560                 1.0518                 1.0385
 Frc consts  --      1.4947                 1.5109                 4.4186
 IR Inten    --      4.1157                 1.7383                17.2737

                     88                     89                     90
                      A                      A                      A
 Frequencies --   2934.2566              2943.2744              3034.0151
 Red. masses --      1.0797                 1.0634                 1.0721
 Frc consts  --      5.4769                 5.4274                 5.8145
 IR Inten    --     47.1325               108.2478                29.9803

                     91                     92                     93
                      A                      A                      A
 Frequencies --   3042.1197              3048.7947              3049.8661
 Red. masses --      1.0368                 1.0388                 1.0310
 Frc consts  --      5.6533                 5.6891                 5.6500
 IR Inten    --     20.6082                38.5702                29.3743

                     94                     95                     96
                      A                      A                      A
 Frequencies --   3060.5595              3064.1132              3071.5915
 Red. masses --      1.0385                 1.0698                 1.0591
 Frc consts  --      5.7316                 5.9176                 5.8872
 IR Inten    --     11.8538                13.9175                33.2231

                     97                     98                     99
                      A                      A                      A
 Frequencies --   3077.0339              3088.0726              3103.8433
 Red. masses --      1.0666                 1.0721                 1.0959
 Frc consts  --      5.9501                 6.0235                 6.2203
 IR Inten    --     25.0636                39.9648                19.9667

                    100                    101                    102
                      A                      A                      A
 Frequencies --   3108.1807              3112.0720              3118.2567
 Red. masses --      1.0996                 1.0982                 1.1004
 Frc consts  --      6.2589                 6.2669                 6.3041
 IR Inten    --     12.6906                55.8022                16.1210

                    103                    104                    105
                      A                      A                      A
 Frequencies --   3119.5384              3127.3073              3132.5916
 Red. masses --      1.1012                 1.1014                 1.1013
 Frc consts  --      6.3138                 6.3466                 6.3672
 IR Inten    --     20.1694                32.1636                12.7879

                    106                    107                    108
                      A                      A                      A
 Frequencies --   3136.7080              3137.1410              3139.5358
 Red. masses --      1.1048                 1.1005                 1.0933
 Frc consts  --      6.4043                 6.3813                 6.3492
 IR Inten    --      6.5177                22.3389                35.9687

                    109                    110                    111
                      A                      A                      A
 Frequencies --   3142.3113              3147.4356              3156.9385
 Red. masses --      1.1007                 1.0973                 1.1063
 Frc consts  --      6.4038                 6.4047                 6.4964
 IR Inten    --     27.0308                 8.9302                 6.4455

 - Thermochemistry -
 -------------------
 Temperature   298.150 Kelvin.  Pressure   1.00000 Atm.
 Atom     1 has atomic number  6 and mass  12.00000

 Molecular mass:   235.14284 amu.
 Principal axes and moments of inertia in atomic units:
                           1         2         3
     Eigenvalues --  2476.430875919.270566172.16641
           X            0.99955  -0.01708   0.02455
           Y            0.01789   0.99929  -0.03304
           Z           -0.02397   0.03346   0.99915
 This molecule is an asymmetric top.
 Rotational symmetry number  1.
 Warning -- assumption of classical behavior for rotation
           may cause significant error
 Rotational temperatures (Kelvin)      0.03498     0.01463     0.01403
 Rotational constants (GHZ):           0.72877     0.30489     0.29240
 Zero-point vibrational energy     923421.1 (Joules/Mol)
                                  220.70295 (Kcal/Mol)
 Warning -- explicit consideration of  29 degrees of freedom as
           vibrations may cause significant error
 Vibrational temperatures:     38.99    61.28    86.08   117.27   141.10
          (Kelvin)            182.13   207.97   250.13   284.99   305.37
                              311.46   318.66   354.76   373.23   392.00
                              406.38   421.34   435.97   450.19   456.99
                              509.48   512.61   574.84   619.31   639.38
                              649.76   706.54   794.89   873.93   915.85
                             1001.05  1032.53  1086.75  1113.81  1138.45
                             1201.27  1275.74  1301.08  1318.68  1322.45
                             1364.63  1384.96  1448.79  1454.78  1464.30
                             1468.62  1488.72  1528.01  1554.13  1597.99
                             1631.82  1671.92  1686.47  1716.96  1747.50
                             1769.17  1820.65  1831.38  1880.17  1897.12
                             1919.18  1937.90  1989.36  1996.64  2016.54
                             2027.03  2036.00  2053.84  2055.47  2070.85
                             2090.51  2136.21  2141.93  2153.26  2154.19
                             2167.10  2190.56  2191.22  2193.23  2198.67
                             2207.18  2211.34  2216.93  2226.17  2230.03
                             2246.59  3866.41  4221.74  4234.72  4365.27
                             4376.93  4386.54  4388.08  4403.46  4408.58
                             4419.34  4427.17  4443.05  4465.74  4471.98
                             4477.58  4486.48  4488.32  4499.50  4507.10
                             4513.02  4513.65  4517.09  4521.09  4528.46
                             4542.13

 Zero-point correction=                           0.351713 (Hartree/Particle)
 Thermal correction to Energy=                    0.370175
 Thermal correction to Enthalpy=                  0.371119
 Thermal correction to Gibbs Free Energy=         0.305658
 Sum of electronic and zero-point Energies=          -1285.061635
 Sum of electronic and thermal Energies=             -1285.043173
 Sum of electronic and thermal Enthalpies=           -1285.042229
 Sum of electronic and thermal Free Energies=        -1285.107690

                     E (Thermal)             CV                S
                      KCal/Mol        Cal/Mol-Kelvin    Cal/Mol-Kelvin
 Total                  232.288             69.436            137.774
 Electronic               0.000              0.000              0.000
 Translational            0.889              2.981             42.267
 Rotational               0.889              2.981             32.870
 Vibrational            230.511             63.475             62.638
 Vibration     1          0.593              1.984              6.031
 Vibration     2          0.595              1.980              5.135
 Vibration     3          0.597              1.973              4.463
 Vibration     4          0.600              1.962              3.854
 Vibration     5          0.604              1.951              3.492
 Vibration     6          0.611              1.927              2.997
 Vibration     7          0.616              1.909              2.743
 Vibration     8          0.627              1.875              2.393
 Vibration     9          0.637              1.843              2.151
 Vibration    10          0.643              1.822              2.024
 Vibration    11          0.645              1.816              1.988
 Vibration    12          0.648              1.808              1.947
 Vibration    13          0.661              1.768              1.755
 Vibration    14          0.668              1.747              1.666
 Vibration    15          0.675              1.724              1.581
 Vibration    16          0.681              1.706              1.519
 Vibration    17          0.688              1.687              1.457
 Vibration    18          0.694              1.668              1.400
 Vibration    19          0.701              1.649              1.347
 Vibration    20          0.704              1.640              1.322
 Vibration    21          0.730              1.567              1.148
 Vibration    22          0.732              1.562              1.138
 Vibration    23          0.766              1.471              0.964
 Vibration    24          0.792              1.404              0.857
 Vibration    25          0.804              1.373              0.813
 Vibration    26          0.810              1.357              0.791
 Vibration    27          0.847              1.270              0.681
 Vibration    28          0.908              1.134              0.539
 Vibration    29          0.966              1.016              0.437

 Optimization completed.
    -- Stationary point found.
 Normal termination of Gaussian 16 at Thu Dec 10 09:47:48 2020.

 ----------------------------------------------------------------------
 # B3LYP/6-311++G(d,p) empiricaldispersion=gd3bj scf=xqc pop=npa geom=c
 heck
 ----------------------------------------------------------------------

 ---------------------------------------
 CID_116421980_JID_4333_Energie_neutraal
 ---------------------------------------
 Structure from the checkpoint file:  "JID_4333.chk"
 Charge =  0 Multiplicity = 1

 SCF Done:  E(RB3LYP) =  -1285.60823004     A.U. after   15 cycles
 Normal termination of Gaussian 16 at Thu Dec 10 09:57:04 2020.

 ----------------------------------------------------------------------
 # B3LYP/6-311++G(d,p) empiricaldispersion=gd3bj scf=xqc pop=npa geom=c
 heck
 ----------------------------------------------------------------------

 -------------------------------------
 CID_116421980_JID_4333_Energie_kation
 -------------------------------------
 Structure from the checkpoint file:  "JID_4333.chk"
 Charge =  1 Multiplicity = 2

 SCF Done:  E(UB3LYP) =  -1285.34054668     A.U. after   23 cycles
 Normal termination of Gaussian 16 at Thu Dec 10 10:17:27 2020.
 Gaussian 16:  ES64L-G16RevA.03 25-Dec-2016

 ----------------------------------------------------------------------
 # B3LYP/6-311++G(d,p) empiricaldispersion=gd3bj scf=xqc pop=npa geom=c
 heck
 ----------------------------------------------------------------------

 ------------------------------------
 CID_116421980_JID_4333_Energie_anion
 ------------------------------------
 Structure from the checkpoint file:  "JID_4333.chk"
 Charge = -1 Multiplicity = 2

                         Standard orientation:
 ---------------------------------------------------------------------
 Center     Atomic      Atomic             Coordinates (Angstroms)
 Number     Number       Type             X           Y           Z
 ---------------------------------------------------------------------
      1          6           0       -2.048763    2.387536   -0.702793
      2          6           0       -1.149848    1.540334    0.213882
      3          6           0       -2.021421    0.771311    1.231316
      4          6           0       -3.186758   -0.091050    0.719014
      5         16           0       -2.814176   -1.784133    0.110648
      6          6           0       -2.440578   -1.467550   -1.649214
      7          7           0       -0.250494    0.696216   -0.583457
      8          6           0        0.473165    1.415302   -1.620958
      9          6           0        0.512296   -0.368381    0.069952
     10          6           0        1.766555   -0.085834    0.953437
     11          6           0        1.508610    0.973026    2.040792
     12          6           0        2.112623   -1.418708    1.642343
     13          6           0        2.994953    0.412668    0.155951
     14         16           0        3.585938   -0.623655   -1.249254
     15          1           0       -2.544669    1.766229   -1.455542
     16          1           0       -1.485253    3.165650   -1.223880
     17          1           0       -2.819503    2.888032   -0.107046
     18          1           0       -0.566901    2.260055    0.818300
     19          1           0       -1.401096    0.167952    1.899663
     20          1           0       -2.466862    1.548437    1.868233
     21          1           0       -3.871187   -0.262601    1.556317
     22          1           0       -3.765783    0.428955   -0.050410
     23          1           0       -3.327498   -1.093983   -2.171155
     24          1           0       -1.617348   -0.753693   -1.730119
     25          1           0       -2.151061   -2.425985   -2.088554
     26          1           0        1.041913    2.288253   -1.248579
     27          1           0        1.175683    0.731989   -2.104066
     28          1           0       -0.210575    1.780125   -2.393429
     29          1           0       -0.188719   -0.949304    0.671263
     30          1           0        0.838350   -1.045569   -0.727909
     31          1           0        0.625946    0.721794    2.637526
     32          1           0        2.363171    1.034545    2.725936
     33          1           0        1.357052    1.967967    1.611779
     34          1           0        2.229731   -2.228541    0.914212
     35          1           0        3.044489   -1.335389    2.215293
     36          1           0        1.317198   -1.713289    2.335669
     37          1           0        2.790939    1.383407   -0.299758
     38          1           0        3.836327    0.558394    0.841368
     39          1           0        4.075911   -1.644257   -0.515536
 ---------------------------------------------------------------------

 SCF Done:  E(UB3LYP) =  -1285.59621167     A.U. after   30 cycles

 The electronic state is 2-A.
 Alpha  occ. eigenvalues --  -88.74579 -88.74089 -14.20554 -10.10510 -10.10282
 Alpha  occ. eigenvalues --  -10.10246 -10.09245 -10.09126 -10.08861 -10.08741
 Alpha  occ. eigenvalues --  -10.07518 -10.06288 -10.06250 -10.06233  -7.83273
 Alpha  occ. eigenvalues --   -7.82694  -5.79639  -5.79299  -5.79098  -5.78727
 Alpha  occ. eigenvalues --   -5.78666  -5.78054  -0.82500  -0.73476  -0.71426
 Alpha  occ. eigenvalues --   -0.67583  -0.66097  -0.62849  -0.60574  -0.59445
 Alpha  occ. eigenvalues --   -0.56822  -0.55300  -0.54393  -0.49903  -0.46181
 Alpha  occ. eigenvalues --   -0.43159  -0.40329  -0.39051  -0.37312  -0.36926
 Alpha  occ. eigenvalues --   -0.35436  -0.34181  -0.33872  -0.33007  -0.32182
 Alpha  occ. eigenvalues --   -0.31973  -0.31539  -0.30576  -0.29591  -0.29278
 Alpha  occ. eigenvalues --   -0.28693  -0.28032  -0.27532  -0.26589  -0.25356
 Alpha  occ. eigenvalues --   -0.25202  -0.24716  -0.24359  -0.23621  -0.22740
 Alpha  occ. eigenvalues --   -0.21959  -0.21006  -0.14705  -0.12765  -0.10917
 Alpha  occ. eigenvalues --    0.04163
 Alpha virt. eigenvalues --    0.05959   0.06762   0.07232   0.07968   0.08464
 Alpha virt. eigenvalues --    0.08916   0.08950   0.09782   0.10434   0.10572
 Alpha virt. eigenvalues --    0.10963   0.11185   0.11768   0.12106   0.12235

  Beta  occ. eigenvalues --  -88.74565 -88.74087 -14.20545 -10.10501 -10.10266
  Beta  occ. eigenvalues --  -10.10223 -10.09239 -10.09123 -10.08836 -10.08736
  Beta  occ. eigenvalues --  -10.07498 -10.06258 -10.06222 -10.06201  -7.83259
  Beta  occ. eigenvalues --   -7.82692  -5.79605  -5.79291  -5.79097  -5.78723
  Beta  occ. eigenvalues --   -5.78656  -5.78052  -0.82482  -0.73453  -0.71401
  Beta  occ. eigenvalues --   -0.67557  -0.66046  -0.62816  -0.60537  -0.59390
  Beta  occ. eigenvalues --   -0.56771  -0.55238  -0.54342  -0.49864  -0.46125
  Beta  occ. eigenvalues --   -0.43105  -0.40299  -0.39011  -0.37279  -0.36884
  Beta  occ. eigenvalues --   -0.35403  -0.34157  -0.33845  -0.32975  -0.32151
  Beta  occ. eigenvalues --   -0.31943  -0.31493  -0.30545  -0.29556  -0.29239
  Beta  occ. eigenvalues --   -0.28662  -0.27988  -0.27505  -0.26560  -0.25320
  Beta  occ. eigenvalues --   -0.25170  -0.24685  -0.24325  -0.23588  -0.22707
  Beta  occ. eigenvalues --   -0.21912  -0.20984  -0.14670  -0.12752  -0.10868
  Beta virt. eigenvalues --    0.06269   0.06875   0.07137   0.07779   0.08310
  Beta virt. eigenvalues --    0.08893   0.09294   0.09325   0.10005   0.10743
  Beta virt. eigenvalues --    0.10920   0.11238   0.11527   0.11965   0.12183

 Mulliken charges and spin densities:
               1          2
     1  C    0.747874  -1.586886
     2  C   -0.787339   0.991305
     3  C    0.161295  -0.339077
     4  C   -0.174889  -0.682123
     5  S    0.052332   0.507636
     6  C   -0.400435  -0.415888
     7  N   -0.014610   0.125529
     8  C    0.269663  -0.692047
     9  C    0.976193  -1.168149
    10  C   -1.608297   1.931261
    11  C    0.536164  -1.180486
    12  C    0.228772  -0.830584
    13  C   -0.079177  -0.254761
    14  S    0.117405  -0.320560
    15  H    0.023934   0.130129
    16  H   -0.269389   0.432637
    17  H   -0.354388   0.509203
    18  H    0.212101  -0.044781
    19  H    0.264763  -0.157785
    20  H   -0.534031   0.712993
    21  H   -0.144050   0.389796
    22  H    0.134581   0.036502
    23  H    0.074741   0.086526
    24  H    0.092203   0.084700
    25  H    0.136464   0.050209
    26  H   -0.181781   0.348499
    27  H    0.048849   0.068407
    28  H    0.102576   0.037922
    29  H    0.459753  -0.347545
    30  H    0.169343  -0.053745
    31  H   -0.143089   0.302983
    32  H   -0.301799   0.471842
    33  H   -0.139466   0.264316
    34  H    0.049433   0.090293
    35  H   -0.304822   0.468150
    36  H   -0.094353   0.235288
    37  H    0.028547   0.128191
    38  H   -0.186543   0.434396
    39  H   -0.168525   0.235708
 Sum of Mulliken charges =  -1.00000   1.00000

 Dipole moment (field-independent basis, Debye):
    X=             -1.0445    Y=             -3.2313    Z=             -3.1561  Tot=              4.6361
 Quadrupole moment (field-independent basis, Debye-Ang):
   XX=           -185.2253   YY=           -156.2946   ZZ=           -150.1767
   XY=              6.0126   XZ=              0.0475   YZ=              0.4508

 Summary of Natural Population Analysis:

                                       Natural Population
                Natural  -----------------------------------------------
    Atom  No    Charge         Core      Valence    Rydberg      Total
 -----------------------------------------------------------------------
      C    1   -0.29103      0.99964     2.28522    0.00617     3.29103
      C    2   -0.00135      0.99957     1.98728    0.01450     3.00135
      C    3   -0.19921      0.99958     2.18828    0.01135     3.19921
      C    4   -0.25219      0.99957     2.24049    0.01213     3.25219
      S    5    0.07771      4.99963     2.90500    0.01765     7.92229
      C    6   -0.35256      0.99961     2.34735    0.00560     3.35256
      N    7   -0.29587      0.99971     2.78187    0.01429     3.79587
      C    8   -0.17838      0.99963     2.17019    0.00856     3.17838
      C    9   -0.08946      0.99954     2.07652    0.01340     3.08946
      C   10   -0.06102      0.99955     2.04791    0.01356     3.06102
      C   11   -0.28544      0.99961     2.27793    0.00790     3.28544
      C   12   -0.28824      0.99963     2.28055    0.00807     3.28824
      C   13   -0.24218      0.99951     2.23095    0.01172     3.24218
      S   14   -0.03089      4.99966     3.01662    0.01462     8.03089
      H   15    0.09714      0.00000     0.40151    0.00135     0.40286
      H   16    0.10337      0.00000     0.39550    0.00114     0.39663
      H   17    0.10309      0.00000     0.39570    0.00122     0.39691
      H   18    0.08365      0.00000     0.41362    0.00273     0.41635
      H   19    0.10240      0.00000     0.39594    0.00166     0.39760
      H   20    0.10435      0.00000     0.39402    0.00163     0.39565
      H   21    0.10677      0.00000     0.39182    0.00141     0.39323
      H   22    0.10239      0.00000     0.39626    0.00136     0.39761
      H   23    0.09586      0.00000     0.40262    0.00152     0.40414
      H   24    0.11665      0.00000     0.38138    0.00197     0.38335
      H   25    0.10235      0.00000     0.39671    0.00095     0.39765
      H   26    0.08158      0.00000     0.41709    0.00133     0.41842
      H   27    0.10046      0.00000     0.39857    0.00098     0.39954
      H   28    0.09468      0.00000     0.40430    0.00102     0.40532
      H   29    0.10654      0.00000     0.39146    0.00199     0.39346
      H   30    0.10212      0.00000     0.39652    0.00136     0.39788
      H   31    0.10185      0.00000     0.39677    0.00137     0.39815
      H   32    0.10153      0.00000     0.39730    0.00117     0.39847
      H   33    0.10150      0.00000     0.39658    0.00192     0.39850
      H   34    0.10123      0.00000     0.39770    0.00107     0.39877
      H   35    0.10159      0.00000     0.39726    0.00115     0.39841
      H   36    0.10188      0.00000     0.39695    0.00116     0.39812
      H   37    0.10893      0.00000     0.38961    0.00146     0.39107
      H   38    0.10575      0.00000     0.39271    0.00154     0.39425
      H   39    0.06246      0.00000     0.43469    0.00285     0.43754
 =======================================================================
   * Total *    0.00000     21.99446    42.80872    0.19683    65.00000

 Normal termination of Gaussian 16 at Thu Dec 10 10:43:21 2020.
