 Gaussian 16, Revision A.03,

 -----------------------------------------------------------
 # opt freq B3LYP/6-31G(d) empiricaldispersion=gd3bj scf=xqc
 -----------------------------------------------------------

 -------------------------------
 CID_103339425_JID_2679_neutraal
 -------------------------------
 Symbolic Z-matrix:
 Charge =  0 Multiplicity = 1

 SCF Done:  E(RB3LYP) =  -539.695763151     A.U. after   13 cycles
 SCF Done:  E(RB3LYP) =  -539.700307812     A.U. after   11 cycles
 SCF Done:  E(RB3LYP) =  -539.699395787     A.U. after   12 cycles
 SCF Done:  E(RB3LYP) =  -539.701136230     A.U. after   11 cycles
 SCF Done:  E(RB3LYP) =  -539.702071618     A.U. after   11 cycles
 SCF Done:  E(RB3LYP) =  -539.702383018     A.U. after   11 cycles
 SCF Done:  E(RB3LYP) =  -539.702501928     A.U. after   10 cycles
 SCF Done:  E(RB3LYP) =  -539.702546989     A.U. after   10 cycles
 SCF Done:  E(RB3LYP) =  -539.702564445     A.U. after    9 cycles
 SCF Done:  E(RB3LYP) =  -539.702576416     A.U. after    9 cycles
 SCF Done:  E(RB3LYP) =  -539.702585897     A.U. after    9 cycles
 SCF Done:  E(RB3LYP) =  -539.702588892     A.U. after    9 cycles
 SCF Done:  E(RB3LYP) =  -539.702590408     A.U. after    8 cycles
 SCF Done:  E(RB3LYP) =  -539.702590630     A.U. after    7 cycles
 SCF Done:  E(RB3LYP) =  -539.702590716     A.U. after    7 cycles
 Optimization completed.
    -- Stationary point found.
 Normal termination of Gaussian 16 at Wed Dec  9 17:56:09 2020.

 --------------------------------------------------------------------
 #N Geom=AllCheck Guess=TCheck SCRF=Check GenChk RB3LYP/6-31G(d) Freq
 --------------------------------------------------------------------

 Structure from the checkpoint file:  "JID_2679.chk"
 -------------------------------
 CID_103339425_JID_2679_neutraal
 -------------------------------
 Charge =  0 Multiplicity = 1

 SCF Done:  E(RB3LYP) =  -539.702590716     A.U. after    1 cycles

  Exact polarizability: 112.619  -1.306 113.031  -7.361   4.977 112.745
 Approx polarizability: 147.054   0.300 156.017 -11.301  12.388 161.239

                      1                      2                      3
                      A                      A                      A
 Frequencies --     34.5024                40.1417                65.2984
 Red. masses --      3.5767                 4.3491                 2.2997
 Frc consts  --      0.0025                 0.0041                 0.0058
 IR Inten    --      0.1078                 1.0108                 2.7408

                      4                      5                      6
                      A                      A                      A
 Frequencies --     73.2845                87.3759                98.4811
 Red. masses --      3.3675                 2.6562                 2.7882
 Frc consts  --      0.0107                 0.0119                 0.0159
 IR Inten    --      0.2541                 0.1838                 1.5171

                      7                      8                      9
                      A                      A                      A
 Frequencies --    126.3316               143.9524               193.2760
 Red. masses --      2.1308                 1.8070                 1.4444
 Frc consts  --      0.0200                 0.0221                 0.0318
 IR Inten    --      1.3390                 1.4637                 0.8184

                     10                     11                     12
                      A                      A                      A
 Frequencies --    217.9102               246.7837               254.7182
 Red. masses --      1.6179                 1.7686                 2.4195
 Frc consts  --      0.0453                 0.0635                 0.0925
 IR Inten    --      3.0848                 0.6404                 0.4464

                     13                     14                     15
                      A                      A                      A
 Frequencies --    281.1640               336.2053               360.3408
 Red. masses --      2.2341                 3.1957                 2.2282
 Frc consts  --      0.1041                 0.2128                 0.1705
 IR Inten    --      1.6706                 2.5194                 2.8097

                     16                     17                     18
                      A                      A                      A
 Frequencies --    402.8005               424.8834               435.0837
 Red. masses --      2.1657                 2.2378                 1.8865
 Frc consts  --      0.2070                 0.2380                 0.2104
 IR Inten    --      3.8954                 0.3516                 4.8646

                     19                     20                     21
                      A                      A                      A
 Frequencies --    447.7966               542.9983               565.1209
 Red. masses --      1.9651                 1.9534                 2.5925
 Frc consts  --      0.2322                 0.3393                 0.4878
 IR Inten    --      3.5678                13.3737                 6.3529

                     22                     23                     24
                      A                      A                      A
 Frequencies --    647.4156               768.7807               809.6686
 Red. masses --      1.7293                 1.7185                 2.3614
 Frc consts  --      0.4271                 0.5984                 0.9121
 IR Inten    --      1.0892                92.6649                21.2145

                     25                     26                     27
                      A                      A                      A
 Frequencies --    845.1139               859.8600               920.9517
 Red. masses --      2.5658                 1.7786                 1.8839
 Frc consts  --      1.0797                 0.7748                 0.9414
 IR Inten    --      6.3026                 2.1720                29.6480

                     28                     29                     30
                      A                      A                      A
 Frequencies --    948.0728               954.5818               973.8762
 Red. masses --      1.3526                 1.8938                 1.7810
 Frc consts  --      0.7163                 1.0168                 0.9952
 IR Inten    --     40.2727                12.0746                 2.8507

                     31                     32                     33
                      A                      A                      A
 Frequencies --    995.2758              1001.0836              1021.6986
 Red. masses --      2.4463                 2.5099                 1.6289
 Frc consts  --      1.4278                 1.4820                 1.0018
 IR Inten    --     15.0913                19.2093                 3.7491

                     34                     35                     36
                      A                      A                      A
 Frequencies --   1032.4131              1066.6683              1076.8222
 Red. masses --      1.1349                 2.2011                 2.3318
 Frc consts  --      0.7127                 1.4755                 1.5930
 IR Inten    --     15.5695                34.6406                37.8478

                     37                     38                     39
                      A                      A                      A
 Frequencies --   1121.6191              1132.3832              1165.4703
 Red. masses --      2.0063                 2.0514                 1.8829
 Frc consts  --      1.4871                 1.5498                 1.5069
 IR Inten    --     14.7398                24.3055                44.5043

                     40                     41                     42
                      A                      A                      A
 Frequencies --   1168.5973              1196.1264              1198.7370
 Red. masses --      2.0168                 1.3358                 2.5303
 Frc consts  --      1.6227                 1.1260                 2.1422
 IR Inten    --     19.5956                 4.8482                19.3766

                     43                     44                     45
                      A                      A                      A
 Frequencies --   1210.0287              1226.5941              1239.6610
 Red. masses --      1.9331                 2.1291                 1.8493
 Frc consts  --      1.6676                 1.8873                 1.6744
 IR Inten    --     29.6451                 6.4765                14.0284

                     46                     47                     48
                      A                      A                      A
 Frequencies --   1306.3504              1306.9141              1322.0341
 Red. masses --      1.1734                 1.3117                 1.3395
 Frc consts  --      1.1798                 1.3201                 1.3793
 IR Inten    --      6.9293                31.5054                 2.1851

                     49                     50                     51
                      A                      A                      A
 Frequencies --   1341.0020              1344.7863              1350.5452
 Red. masses --      1.2223                 1.3357                 1.2000
 Frc consts  --      1.2950                 1.4232                 1.2896
 IR Inten    --      6.4300                12.8183                10.9737

                     52                     53                     54
                      A                      A                      A
 Frequencies --   1396.3663              1405.7885              1421.6527
 Red. masses --      1.3595                 1.2908                 1.2822
 Frc consts  --      1.5618                 1.5030                 1.5268
 IR Inten    --     22.7463                 8.6382                17.7134

                     55                     56                     57
                      A                      A                      A
 Frequencies --   1427.0564              1436.1630              1479.6248
 Red. masses --      1.3335                 1.3382                 1.1571
 Frc consts  --      1.6000                 1.6263                 1.4925
 IR Inten    --      5.2870                 7.0996                 0.9033

                     58                     59                     60
                      A                      A                      A
 Frequencies --   1485.1493              1496.6244              1508.3060
 Red. masses --      1.2114                 1.1118                 1.0955
 Frc consts  --      1.5742                 1.4673                 1.4684
 IR Inten    --      7.1704                 1.3643                 5.8835

                     61                     62                     63
                      A                      A                      A
 Frequencies --   1512.3604              1512.5175              1517.0023
 Red. masses --      1.0739                 1.0970                 1.1109
 Frc consts  --      1.4472                 1.4786                 1.5063
 IR Inten    --      9.3095                 4.2310                 0.9266

                     64                     65                     66
                      A                      A                      A
 Frequencies --   1517.8739              1522.4867              1527.3223
 Red. masses --      1.1043                 1.1209                 1.0854
 Frc consts  --      1.4990                 1.5308                 1.4918
 IR Inten    --      1.1149                 2.7608                 7.1733

                     67                     68                     69
                      A                      A                      A
 Frequencies --   1535.2274              1548.9419              1550.8157
 Red. masses --      1.1091                 1.0586                 1.0659
 Frc consts  --      1.5402                 1.4964                 1.5104
 IR Inten    --     10.7576                13.3229                 4.0054

                     70                     71                     72
                      A                      A                      A
 Frequencies --   1736.1527              2923.4800              2930.7639
 Red. masses --      4.5094                 1.0738                 1.0738
 Frc consts  --      8.0085                 5.4071                 5.4340
 IR Inten    --      2.2507                30.9523                72.6020

                     73                     74                     75
                      A                      A                      A
 Frequencies --   2943.6535              2961.0186              2998.4163
 Red. masses --      1.0733                 1.0597                 1.0635
 Frc consts  --      5.4797                 5.4739                 5.6336
 IR Inten    --    134.5780                77.5646                38.1076

                     76                     77                     78
                      A                      A                      A
 Frequencies --   3010.4655              3042.8460              3067.8376
 Red. masses --      1.0480                 1.0613                 1.0734
 Frc consts  --      5.5960                 5.7896                 5.9524
 IR Inten    --     65.7131                40.9575                52.7358

                     79                     80                     81
                      A                      A                      A
 Frequencies --   3075.9651              3081.4146              3088.6184
 Red. masses --      1.0991                 1.0952                 1.0887
 Frc consts  --      6.1268                 6.1271                 6.1190
 IR Inten    --     30.9754                53.2537                25.1720

                     82                     83                     84
                      A                      A                      A
 Frequencies --   3096.9457              3107.3475              3112.5160
 Red. masses --      1.0897                 1.0887                 1.0863
 Frc consts  --      6.1576                 6.1933                 6.2004
 IR Inten    --     44.6816                31.0675                20.0422

                     85                     86                     87
                      A                      A                      A
 Frequencies --   3114.0124              3128.0067              3154.2872
 Red. masses --      1.1023                 1.1047                 1.0605
 Frc consts  --      6.2976                 6.3687                 6.2166
 IR Inten    --     33.2935                46.2204                18.4596

                     88                     89                     90
                      A                      A                      A
 Frequencies --   3164.1826              3236.9684              3500.0633
 Red. masses --      1.0900                 1.1155                 1.0728
 Frc consts  --      6.4296                 6.8865                 7.7433
 IR Inten    --      6.9101                18.7392                 2.5368

 - Thermochemistry -
 -------------------
 Temperature   298.150 Kelvin.  Pressure   1.00000 Atm.
 Atom     1 has atomic number  6 and mass  12.00000

 Molecular mass:   172.15756 amu.
 Principal axes and moments of inertia in atomic units:
                           1         2         3
     Eigenvalues --  2173.292472425.483963229.54614
           X            0.99582  -0.09119  -0.00541
           Y            0.09116   0.99582  -0.00581
           Z            0.00591   0.00529   0.99997
 This molecule is an asymmetric top.
 Rotational symmetry number  1.
 Warning -- assumption of classical behavior for rotation
           may cause significant error
 Rotational temperatures (Kelvin)      0.03985     0.03571     0.02682
 Rotational constants (GHZ):           0.83042     0.74407     0.55882
 Zero-point vibrational energy     766853.1 (Joules/Mol)
                                  183.28228 (Kcal/Mol)
 Warning -- explicit consideration of  21 degrees of freedom as
           vibrations may cause significant error
 Vibrational temperatures:     49.64    57.75    93.95   105.44   125.71
          (Kelvin)            141.69   181.76   207.12   278.08   313.52
                              355.07   366.48   404.53   483.72   518.45
                              579.54   611.31   625.99   644.28   781.25
                              813.08   931.49  1106.10  1164.93  1215.93
                             1237.15  1325.04  1364.07  1373.43  1401.19
                             1431.98  1440.34  1470.00  1485.41  1534.70
                             1549.31  1613.76  1629.25  1676.85  1681.35
                             1720.96  1724.72  1740.96  1764.80  1783.60
                             1879.55  1880.36  1902.11  1929.40  1934.85
                             1943.13  2009.06  2022.62  2045.44  2053.22
                             2066.32  2128.85  2136.80  2153.31  2170.12
                             2175.95  2176.18  2182.63  2183.88  2190.52
                             2197.48  2208.85  2228.58  2231.28  2497.94
                             4206.24  4216.72  4235.26  4260.25  4314.05
                             4331.39  4377.98  4413.93  4425.63  4433.47
                             4443.83  4455.81  4470.78  4478.22  4480.37
                             4500.50  4538.32  4552.55  4657.28  5035.81

 Zero-point correction=                           0.292079 (Hartree/Particle)
 Thermal correction to Energy=                    0.306940
 Thermal correction to Enthalpy=                  0.307884
 Thermal correction to Gibbs Free Energy=         0.249164
 Sum of electronic and zero-point Energies=           -539.410512
 Sum of electronic and thermal Energies=              -539.395651
 Sum of electronic and thermal Enthalpies=            -539.394707
 Sum of electronic and thermal Free Energies=         -539.453426

                     E (Thermal)             CV                S
                      KCal/Mol        Cal/Mol-Kelvin    Cal/Mol-Kelvin
 Total                  192.608             52.995            123.586
 Electronic               0.000              0.000              0.000
 Translational            0.889              2.981             41.337
 Rotational               0.889              2.981             31.210
 Vibrational            190.830             47.033             51.039
 Vibration     1          0.594              1.983              5.552
 Vibration     2          0.594              1.981              5.252
 Vibration     3          0.597              1.971              4.290
 Vibration     4          0.599              1.967              4.063
 Vibration     5          0.601              1.958              3.718
 Vibration     6          0.604              1.950              3.484
 Vibration     7          0.611              1.927              3.001
 Vibration     8          0.616              1.909              2.751
 Vibration     9          0.635              1.849              2.196
 Vibration    10          0.646              1.814              1.976
 Vibration    11          0.661              1.768              1.753
 Vibration    12          0.665              1.755              1.698
 Vibration    13          0.681              1.708              1.527
 Vibration    14          0.717              1.603              1.230
 Vibration    15          0.735              1.554              1.121
 Vibration    16          0.768              1.464              0.952
 Vibration    17          0.787              1.416              0.876
 Vibration    18          0.796              1.394              0.842
 Vibration    19          0.807              1.366              0.802
 Vibration    20          0.898              1.155              0.559
 Vibration    21          0.921              1.107              0.514

 Optimization completed.
    -- Stationary point found.
 Normal termination of Gaussian 16 at Wed Dec  9 18:05:04 2020.

 ----------------------------------------------------------------------
 # B3LYP/6-311++G(d,p) empiricaldispersion=gd3bj scf=xqc pop=npa geom=c
 heck
 ----------------------------------------------------------------------

 ---------------------------------------
 CID_103339425_JID_2679_Energie_neutraal
 ---------------------------------------
 Structure from the checkpoint file:  "JID_2679.chk"
 Charge =  0 Multiplicity = 1

 SCF Done:  E(RB3LYP) =  -539.864480789     A.U. after   13 cycles
 Normal termination of Gaussian 16 at Wed Dec  9 18:08:20 2020.

 ----------------------------------------------------------------------
 # B3LYP/6-311++G(d,p) empiricaldispersion=gd3bj scf=xqc pop=npa geom=c
 heck
 ----------------------------------------------------------------------

 -------------------------------------
 CID_103339425_JID_2679_Energie_kation
 -------------------------------------
 Structure from the checkpoint file:  "JID_2679.chk"
 Charge =  1 Multiplicity = 2

 SCF Done:  E(UB3LYP) =  -539.577059685     A.U. after   22 cycles
 Normal termination of Gaussian 16 at Wed Dec  9 18:16:53 2020.
 Gaussian 16:  ES64L-G16RevA.03 25-Dec-2016

 ----------------------------------------------------------------------
 # B3LYP/6-311++G(d,p) empiricaldispersion=gd3bj scf=xqc pop=npa geom=c
 heck
 ----------------------------------------------------------------------

 ------------------------------------
 CID_103339425_JID_2679_Energie_anion
 ------------------------------------
 Structure from the checkpoint file:  "JID_2679.chk"
 Charge = -1 Multiplicity = 2

                         Standard orientation:
 ---------------------------------------------------------------------
 Center     Atomic      Atomic             Coordinates (Angstroms)
 Number     Number       Type             X           Y           Z
 ---------------------------------------------------------------------
      1          6           0        3.036955   -0.028652    0.878917
      2          7           0        2.048698    1.041016    0.935044
      3          6           0        1.761193    1.657466   -0.354646
      4          6           0        0.980386    0.775380   -1.343829
      5          7           0       -0.281972    0.294912   -0.777489
      6          6           0       -0.753452   -0.923293   -1.443765
      7          6           0       -0.167035   -2.208761   -0.858668
      8          8           0       -0.773243   -2.609034    0.356138
      9          6           0       -0.312199   -1.936022    1.514799
     10          6           0       -1.317182    1.337693   -0.732098
     11          6           0       -2.331021    1.068611    0.347801
     12          6           0       -2.611819    1.917053    1.336074
     13          1           0        3.997644    0.385850    0.550275
     14          1           0        2.790633   -0.870891    0.206994
     15          1           0        3.179335   -0.439009    1.884282
     16          1           0        1.171844    0.668680    1.295878
     17          1           0        1.208094    2.586623   -0.167888
     18          1           0        2.709778    1.954418   -0.820103
     19          1           0        0.822937    1.321080   -2.295309
     20          1           0        1.586381   -0.102719   -1.589105
     21          1           0       -1.839684   -0.994764   -1.335630
     22          1           0       -0.548660   -0.886751   -2.530975
     23          1           0       -0.352230   -3.029077   -1.562197
     24          1           0        0.923976   -2.115232   -0.732925
     25          1           0        0.787624   -1.945431    1.568739
     26          1           0       -0.655980   -0.896700    1.557490
     27          1           0       -0.710476   -2.486435    2.372422
     28          1           0       -0.838059    2.298763   -0.527992
     29          1           0       -1.817392    1.439157   -1.715741
     30          1           0       -2.847652    0.110291    0.304163
     31          1           0       -3.351223    1.685503    2.097764
     32          1           0       -2.112992    2.880580    1.420348
 ---------------------------------------------------------------------

 SCF Done:  E(UB3LYP) =  -539.846465477     A.U. after   33 cycles
 SCF Done:  E(UB3LYP) =  -539.846465477     a.u. after    1 cycles

 The electronic state is 2-A.
 Alpha  occ. eigenvalues --  -19.02609 -14.21042 -14.19234 -10.11732 -10.10846
 Alpha  occ. eigenvalues --  -10.10410 -10.09668 -10.09129 -10.08917 -10.08600
 Alpha  occ. eigenvalues --  -10.08250 -10.07594  -0.93713  -0.83470  -0.79671
 Alpha  occ. eigenvalues --   -0.69672  -0.66177  -0.63144  -0.59556  -0.57580
 Alpha  occ. eigenvalues --   -0.54291  -0.51111  -0.48190  -0.46430  -0.40876
 Alpha  occ. eigenvalues --   -0.39763  -0.39374  -0.38093  -0.36615  -0.36144
 Alpha  occ. eigenvalues --   -0.35739  -0.34664  -0.32396  -0.31968  -0.30974
 Alpha  occ. eigenvalues --   -0.30262  -0.29172  -0.27928  -0.27055  -0.26792
 Alpha  occ. eigenvalues --   -0.26073  -0.24780  -0.24091  -0.21944  -0.17900
 Alpha  occ. eigenvalues --   -0.16810  -0.12620  -0.12127   0.04690
 Alpha virt. eigenvalues --    0.06582   0.06970   0.07271   0.08342   0.08644
 Alpha virt. eigenvalues --    0.08952   0.09243   0.09740   0.10403   0.11264
 Alpha virt. eigenvalues --    0.11827   0.12211   0.12501   0.12867   0.13632

  Beta  occ. eigenvalues --  -19.02602 -14.21022 -14.19231 -10.11713 -10.10832
  Beta  occ. eigenvalues --  -10.10394 -10.09652 -10.09105 -10.08899 -10.08595
  Beta  occ. eigenvalues --  -10.08214 -10.07572  -0.93697  -0.83437  -0.79653
  Beta  occ. eigenvalues --   -0.69649  -0.66144  -0.63105  -0.59521  -0.57527
  Beta  occ. eigenvalues --   -0.54240  -0.51061  -0.48133  -0.46372  -0.40853
  Beta  occ. eigenvalues --   -0.39723  -0.39338  -0.38065  -0.36583  -0.36111
  Beta  occ. eigenvalues --   -0.35699  -0.34628  -0.32363  -0.31930  -0.30932
  Beta  occ. eigenvalues --   -0.30226  -0.29139  -0.27890  -0.27023  -0.26761
  Beta  occ. eigenvalues --   -0.26039  -0.24745  -0.24065  -0.21920  -0.17879
  Beta  occ. eigenvalues --   -0.16771  -0.12567  -0.12051
  Beta virt. eigenvalues --    0.06799   0.07529   0.07740   0.07889   0.08398
  Beta virt. eigenvalues --    0.09269   0.09389   0.09763   0.10185   0.10844
  Beta virt. eigenvalues --    0.11823   0.12256   0.12526   0.12890   0.13195

 Mulliken charges and spin densities:
               1          2
     1  C    0.781252  -1.180397
     2  N   -0.287919   0.193570
     3  C    0.674496  -1.111277
     4  C   -0.153488  -0.222162
     5  N    0.213436   0.069058
     6  C   -0.854932   0.501966
     7  C    1.058893  -1.365238
     8  O   -0.163197   0.037611
     9  C   -0.111048  -0.273890
    10  C    0.357302  -0.946172
    11  C   -1.006315   1.278583
    12  C    0.942408  -1.370247
    13  H   -0.247842   0.393100
    14  H   -0.185292   0.276687
    15  H   -0.295134   0.451423
    16  H    0.207512   0.032226
    17  H   -0.001572   0.168136
    18  H   -0.242298   0.387936
    19  H   -0.501318   0.644181
    20  H   -0.069175   0.211482
    21  H    0.025844   0.167648
    22  H   -0.476086   0.597769
    23  H   -0.175683   0.347726
    24  H    0.001463   0.125202
    25  H    0.115526   0.026153
    26  H    0.170327   0.005549
    27  H   -0.233513   0.380509
    28  H   -0.134901   0.222840
    29  H   -0.126257   0.280293
    30  H    0.045942   0.083061
    31  H   -0.321795   0.455827
    32  H   -0.006636   0.130846
 Sum of Mulliken charges =  -1.00000   1.00000

 Dipole moment (field-independent basis, Debye):
    X=             -2.4216    Y=             -0.2028    Z=              1.3495  Tot=              2.7796
 Quadrupole moment (field-independent basis, Debye-Ang):
   XX=           -136.8539   YY=           -124.8639   ZZ=           -127.9328
   XY=              0.6245   XZ=              3.2281   YZ=              0.8001

 Summary of Natural Population Analysis:

                                       Natural Population
                Natural  -----------------------------------------------
    Atom  No    Charge         Core      Valence    Rydberg      Total
 -----------------------------------------------------------------------
      C    1   -0.18044      0.99965     2.17211    0.00867     3.18044
      N    2   -0.34105      0.99976     2.82978    0.01151     3.84105
      C    3   -0.08977      0.99962     2.07791    0.01225     3.08977
      C    4   -0.09237      0.99960     2.08119    0.01159     3.09237
      N    5   -0.29686      0.99970     2.78098    0.01617     3.79686
      C    6   -0.09694      0.99960     2.08566    0.01168     3.09694
      C    7   -0.01130      0.99956     1.99840    0.01334     3.01130
      O    8   -0.30027      0.99989     3.29076    0.00961     4.30027
      C    9   -0.09943      0.99960     2.09040    0.00943     3.09943
      C   10   -0.10092      0.99958     2.08948    0.01186     3.10092
      C   11   -0.08532      0.99955     2.07569    0.01008     3.08532
      C   12   -0.18845      0.99956     2.18173    0.00716     3.18845
      H   13    0.09176      0.00000     0.40694    0.00130     0.40824
      H   14    0.07797      0.00000     0.42021    0.00182     0.42203
      H   15    0.09403      0.00000     0.40486    0.00111     0.40597
      H   16    0.17398      0.00000     0.32118    0.00484     0.32602
      H   17    0.09004      0.00000     0.40828    0.00168     0.40996
      H   18    0.09481      0.00000     0.40406    0.00113     0.40519
      H   19    0.08741      0.00000     0.41040    0.00219     0.41259
      H   20    0.09777      0.00000     0.40009    0.00214     0.40223
      H   21    0.09716      0.00000     0.40090    0.00194     0.40284
      H   22    0.08961      0.00000     0.40834    0.00205     0.41039
      H   23    0.08894      0.00000     0.40967    0.00139     0.41106
      H   24    0.08104      0.00000     0.41703    0.00193     0.41896
      H   25    0.07848      0.00000     0.42013    0.00139     0.42152
      H   26    0.08678      0.00000     0.41132    0.00190     0.41322
      H   27    0.08519      0.00000     0.41370    0.00111     0.41481
      H   28    0.09900      0.00000     0.39915    0.00185     0.40100
      H   29    0.08915      0.00000     0.40926    0.00159     0.41085
      H   30    0.09443      0.00000     0.40425    0.00131     0.40557
      H   31    0.09493      0.00000     0.40397    0.00110     0.40507
      H   32    0.09065      0.00000     0.40825    0.00110     0.40935
 =======================================================================
   * Total *    0.00000     11.99567    35.83612    0.16821    48.00000

 Normal termination of Gaussian 16 at Wed Dec  9 18:28:13 2020.
