 Gaussian 16, Revision A.03,

 -----------------------------------------------------------
 # opt freq B3LYP/6-31G(d) empiricaldispersion=gd3bj scf=xqc
 -----------------------------------------------------------

 -------------------------------
 CID_89560176_JID_10467_neutraal
 -------------------------------
 Symbolic Z-matrix:
 Charge =  0 Multiplicity = 1

 SCF Done:  E(RB3LYP) =  -881.981275339     A.U. after   15 cycles
 SCF Done:  E(RB3LYP) =  -881.985504095     A.U. after   12 cycles
 SCF Done:  E(RB3LYP) =  -881.985583159     A.U. after   11 cycles
 SCF Done:  E(RB3LYP) =  -881.985592039     A.U. after   12 cycles
 SCF Done:  E(RB3LYP) =  -881.985717126     A.U. after   11 cycles
 SCF Done:  E(RB3LYP) =  -881.985721618     A.U. after    9 cycles
 SCF Done:  E(RB3LYP) =  -881.985723185     A.U. after    9 cycles
 SCF Done:  E(RB3LYP) =  -881.985723960     A.U. after    8 cycles
 SCF Done:  E(RB3LYP) =  -881.985724911     A.U. after   10 cycles
 SCF Done:  E(RB3LYP) =  -881.985725453     A.U. after    9 cycles
 SCF Done:  E(RB3LYP) =  -881.985732446     A.U. after    8 cycles
 SCF Done:  E(RB3LYP) =  -881.985732987     A.U. after    9 cycles
 SCF Done:  E(RB3LYP) =  -881.985733155     A.U. after    9 cycles
 SCF Done:  E(RB3LYP) =  -881.985733231     A.U. after    9 cycles
 SCF Done:  E(RB3LYP) =  -881.985733236     A.U. after    6 cycles
 SCF Done:  E(RB3LYP) =  -881.985733238     A.U. after    6 cycles
 Optimization completed.
    -- Stationary point found.
 Normal termination of Gaussian 16 at Sat Dec 12 15:48:25 2020.

 --------------------------------------------------------------------
 #N Geom=AllCheck Guess=TCheck SCRF=Check GenChk RB3LYP/6-31G(d) Freq
 --------------------------------------------------------------------

 Structure from the checkpoint file:  "JID_10467.chk"
 -------------------------------
 CID_89560176_JID_10467_neutraal
 -------------------------------
 Charge =  0 Multiplicity = 1

 SCF Done:  E(RB3LYP) =  -881.985733238     A.U. after    1 cycles

  Exact polarizability: 271.483  -7.449 175.142  -6.559  11.652 112.680
 Approx polarizability: 356.052  -9.861 333.465 -13.775  23.650 187.221

                      1                      2                      3
                      A                      A                      A
 Frequencies --     13.7346                16.6909                20.1745
 Red. masses --      2.4727                 1.2885                 4.6645
 Frc consts  --      0.0003                 0.0002                 0.0011
 IR Inten    --      1.1731                 0.5269                 1.1913

                      4                      5                      6
                      A                      A                      A
 Frequencies --     71.1618                75.9819               109.2480
 Red. masses --      4.0797                 4.4969                 5.3420
 Frc consts  --      0.0122                 0.0153                 0.0376
 IR Inten    --      0.2062                 2.0866                 1.0093

                      7                      8                      9
                      A                      A                      A
 Frequencies --    143.5872               166.5877               180.0415
 Red. masses --      6.9443                 5.4676                 5.2799
 Frc consts  --      0.0844                 0.0894                 0.1008
 IR Inten    --      7.7968                 2.0571                 0.2909

                     10                     11                     12
                      A                      A                      A
 Frequencies --    209.6915               213.5771               239.5728
 Red. masses --      4.7441                 3.1414                 1.3332
 Frc consts  --      0.1229                 0.0844                 0.0451
 IR Inten    --      1.7488                 0.9549                 0.1079

                     13                     14                     15
                      A                      A                      A
 Frequencies --    247.9887               286.2108               303.7629
 Red. masses --      4.9968                 4.1437                 2.9968
 Frc consts  --      0.1811                 0.2000                 0.1629
 IR Inten    --      0.7549                 5.0330                 1.4639

                     16                     17                     18
                      A                      A                      A
 Frequencies --    318.8463               381.7935               415.3437
 Red. masses --      9.2755                 3.2669                 4.3086
 Frc consts  --      0.5556                 0.2806                 0.4379
 IR Inten    --      5.3113                 1.5620                 3.1300

                     19                     20                     21
                      A                      A                      A
 Frequencies --    433.3871               447.8399               492.4243
 Red. masses --      4.0918                 3.2788                 4.6133
 Frc consts  --      0.4528                 0.3874                 0.6591
 IR Inten    --      0.4801                 3.5317                 8.9034

                     22                     23                     24
                      A                      A                      A
 Frequencies --    521.2534               533.8237               541.7880
 Red. masses --      4.6306                 4.9787                 8.1293
 Frc consts  --      0.7413                 0.8359                 1.4059
 IR Inten    --      1.7663                 2.3860                 2.3046

                     25                     26                     27
                      A                      A                      A
 Frequencies --    555.3849               579.8617               610.4394
 Red. masses --      4.8588                 5.2730                 7.3452
 Frc consts  --      0.8830                 1.0446                 1.6127
 IR Inten    --      1.6597                13.3240                47.6981

                     28                     29                     30
                      A                      A                      A
 Frequencies --    643.0372               672.2635               702.3829
 Red. masses --      3.7241                 4.8714                 3.6595
 Frc consts  --      0.9073                 1.2971                 1.0637
 IR Inten    --      1.6575                 2.5953                 3.9441

                     31                     32                     33
                      A                      A                      A
 Frequencies --    713.9247               736.7430               775.9727
 Red. masses --      3.7501                 4.1315                 4.2199
 Frc consts  --      1.1262                 1.3213                 1.4971
 IR Inten    --      4.0143                 4.1322                24.5956

                     34                     35                     36
                      A                      A                      A
 Frequencies --    786.0778               810.3985               840.0365
 Red. masses --      1.7419                 3.8435                 1.9228
 Frc consts  --      0.6342                 1.4872                 0.7995
 IR Inten    --     14.3229                 3.1237                34.1957

                     37                     38                     39
                      A                      A                      A
 Frequencies --    860.5336               897.3447               906.3689
 Red. masses --      2.4411                 1.4208                 1.9348
 Frc consts  --      1.0651                 0.6741                 0.9365
 IR Inten    --      2.0368                 3.0021                10.1189

                     40                     41                     42
                      A                      A                      A
 Frequencies --    909.7785               924.1230               942.5419
 Red. masses --      1.5666                 2.4938                 3.1069
 Frc consts  --      0.7640                 1.2548                 1.6262
 IR Inten    --      6.9875                 1.3167                 2.0002

                     43                     44                     45
                      A                      A                      A
 Frequencies --    973.3867               975.1403              1007.5037
 Red. masses --      1.3378                 1.2842                 3.2636
 Frc consts  --      0.7468                 0.7195                 1.9518
 IR Inten    --      0.0651                 0.2444                 6.9663

                     46                     47                     48
                      A                      A                      A
 Frequencies --   1022.0974              1033.3089              1063.0047
 Red. masses --      5.0144                 1.7244                 3.4384
 Frc consts  --      3.0864                 1.0848                 2.2891
 IR Inten    --      1.3062                 4.6950                46.9967

                     49                     50                     51
                      A                      A                      A
 Frequencies --   1075.8619              1099.4332              1133.5669
 Red. masses --      1.5220                 2.7233                 2.3226
 Frc consts  --      1.0379                 1.9394                 1.7584
 IR Inten    --      5.7436                74.4238                55.0205

                     52                     53                     54
                      A                      A                      A
 Frequencies --   1139.1584              1184.2382              1190.8131
 Red. masses --      1.7107                 1.2693                 1.5993
 Frc consts  --      1.3080                 1.0488                 1.3362
 IR Inten    --      4.2201                 0.7740                 2.0137

                     55                     56                     57
                      A                      A                      A
 Frequencies --   1196.9751              1212.4866              1218.6987
 Red. masses --      1.7334                 1.3527                 1.1730
 Frc consts  --      1.4633                 1.1716                 1.0265
 IR Inten    --     15.4039                 4.3622                 6.4202

                     58                     59                     60
                      A                      A                      A
 Frequencies --   1226.4590              1238.1294              1255.9523
 Red. masses --      1.4714                 1.7663                 2.3496
 Frc consts  --      1.3041                 1.5953                 2.1836
 IR Inten    --      6.9015                11.0611                11.2185

                     61                     62                     63
                      A                      A                      A
 Frequencies --   1283.4355              1306.3452              1330.3781
 Red. masses --      3.2670                 4.1423                 2.6600
 Frc consts  --      3.1706                 4.1649                 2.7738
 IR Inten    --     41.1750               354.8337               350.7103

                     64                     65                     66
                      A                      A                      A
 Frequencies --   1348.7857              1369.9105              1391.4891
 Red. masses --      2.3252                 1.9407                 8.9936
 Frc consts  --      2.4923                 2.1459                10.2599
 IR Inten    --      1.4664                 1.1554               124.8507

                     67                     68                     69
                      A                      A                      A
 Frequencies --   1442.5425              1476.8240              1488.3818
 Red. masses --      1.2486                 2.3778                 3.9794
 Frc consts  --      1.5308                 3.0555                 5.1940
 IR Inten    --      0.1679                 7.9392                35.1540

                     70                     71                     72
                      A                      A                      A
 Frequencies --   1497.2047              1516.7866              1523.7314
 Red. masses --      1.2738                 1.0479                 1.0472
 Frc consts  --      1.6823                 1.4205                 1.4325
 IR Inten    --     26.5931                 5.3944                 6.9258

                     73                     74                     75
                      A                      A                      A
 Frequencies --   1525.0446              1531.5369              1542.4487
 Red. masses --      1.2819                 1.1517                 2.2411
 Frc consts  --      1.7566                 1.5916                 3.1415
 IR Inten    --     10.7644                72.4114                44.9978

                     76                     77                     78
                      A                      A                      A
 Frequencies --   1547.1872              1638.3288              1650.1617
 Red. masses --      2.0245                 7.9478                 5.3376
 Frc consts  --      2.8553                12.5690                 8.5634
 IR Inten    --     20.4648                 4.6267                 9.4345

                     79                     80                     81
                      A                      A                      A
 Frequencies --   1658.8673              1668.4491              1799.9801
 Red. masses --      6.3697                 5.5950                12.7027
 Frc consts  --     10.3275                 9.1764                24.2483
 IR Inten    --    201.6930                25.5046               316.3099

                     82                     83                     84
                      A                      A                      A
 Frequencies --   1833.2890              3036.6486              3040.3045
 Red. masses --     13.0806                 1.0344                 1.0815
 Frc consts  --     25.9024                 5.6197                 5.8902
 IR Inten    --    114.5513                56.1059                 5.1419

                     85                     86                     87
                      A                      A                      A
 Frequencies --   3043.4917              3097.8004              3100.6048
 Red. masses --      1.0390                 1.0985                 1.1073
 Frc consts  --      5.6702                 6.2110                 6.2720
 IR Inten    --     33.0145                22.1985                34.7246

                     88                     89                     90
                      A                      A                      A
 Frequencies --   3128.0484              3171.4791              3176.3456
 Red. masses --      1.1016                 1.1006                 1.0872
 Frc consts  --      6.3505                 6.5222                 6.4626
 IR Inten    --     16.2540                21.1200                11.0049

                     91                     92                     93
                      A                      A                      A
 Frequencies --   3196.5390              3201.8697              3213.8014
 Red. masses --      1.0929                 1.0905                 1.0895
 Frc consts  --      6.5793                 6.5869                 6.6301
 IR Inten    --     32.8647                 2.5372                 1.6471

                     94                     95                     96
                      A                      A                      A
 Frequencies --   3229.7129              3231.7609              3235.9780
 Red. masses --      1.0923                 1.0918                 1.0920
 Frc consts  --      6.7132                 6.7182                 6.7371
 IR Inten    --      5.4630                 3.2662                10.3207

 - Thermochemistry -
 -------------------
 Temperature   298.150 Kelvin.  Pressure   1.00000 Atm.
 Atom     1 has atomic number  6 and mass  12.00000

 Molecular mass:   266.09429 amu.
 Principal axes and moments of inertia in atomic units:
                           1         2         3
     Eigenvalues --  2232.14213********************
           X            0.99995  -0.00949  -0.00281
           Y            0.00955   0.99974   0.02070
           Z            0.00261  -0.02072   0.99978
 This molecule is an asymmetric top.
 Rotational symmetry number  1.
 Warning -- assumption of classical behavior for rotation
           may cause significant error
 Rotational temperatures (Kelvin)      0.03880     0.00819     0.00743
 Rotational constants (GHZ):           0.80852     0.17062     0.15484
 Zero-point vibrational energy     705637.8 (Joules/Mol)
                                  168.65149 (Kcal/Mol)
 Warning -- explicit consideration of  27 degrees of freedom as
           vibrations may cause significant error
 Vibrational temperatures:     19.76    24.01    29.03   102.39   109.32
          (Kelvin)            157.18   206.59   239.68   259.04   301.70
                              307.29   344.69   356.80   411.79   437.05
                              458.75   549.32   597.59   623.55   644.34
                              708.49   749.97   768.05   779.51   799.07
                              834.29   878.29   925.19   967.24  1010.57
                             1027.18  1060.01  1116.45  1130.99  1165.98
                             1208.63  1238.12  1291.08  1304.06  1308.97
                             1329.61  1356.11  1400.49  1403.01  1449.57
                             1470.57  1486.70  1529.43  1547.93  1581.84
                             1630.95  1638.99  1703.85  1713.31  1722.18
                             1744.50  1753.44  1764.60  1781.39  1807.04
                             1846.58  1879.54  1914.12  1940.60  1971.00
                             2002.04  2075.50  2124.82  2141.45  2154.14
                             2182.32  2192.31  2194.20  2203.54  2219.24
                             2226.06  2357.19  2374.21  2386.74  2400.53
                             2589.77  2637.69  4369.06  4374.32  4378.91
                             4457.04  4461.08  4500.56  4563.05  4570.05
                             4599.11  4606.78  4623.94  4646.84  4649.78
                             4655.85

 Zero-point correction=                           0.268763 (Hartree/Particle)
 Thermal correction to Energy=                    0.286066
 Thermal correction to Enthalpy=                  0.287010
 Thermal correction to Gibbs Free Energy=         0.220285
 Sum of electronic and zero-point Energies=           -881.716970
 Sum of electronic and thermal Energies=              -881.699667
 Sum of electronic and thermal Enthalpies=            -881.698723
 Sum of electronic and thermal Free Energies=         -881.765448

                     E (Thermal)             CV                S
                      KCal/Mol        Cal/Mol-Kelvin    Cal/Mol-Kelvin
 Total                  179.509             65.700            140.435
 Electronic               0.000              0.000              0.000
 Translational            0.889              2.981             42.635
 Rotational               0.889              2.981             33.975
 Vibrational            177.732             59.738             63.825
 Vibration     1          0.593              1.986              7.381
 Vibration     2          0.593              1.986              6.993
 Vibration     3          0.593              1.986              6.617
 Vibration     4          0.598              1.968              4.121
 Vibration     5          0.599              1.965              3.992
 Vibration     6          0.606              1.942              3.282
 Vibration     7          0.616              1.910              2.756
 Vibration     8          0.624              1.884              2.474
 Vibration     9          0.629              1.867              2.328
 Vibration    10          0.642              1.826              2.046
 Vibration    11          0.644              1.820              2.013
 Vibration    12          0.657              1.780              1.806
 Vibration    13          0.662              1.766              1.745
 Vibration    14          0.684              1.699              1.496
 Vibration    15          0.695              1.667              1.396
 Vibration    16          0.705              1.638              1.316
 Vibration    17          0.751              1.509              1.032
 Vibration    18          0.779              1.437              0.908
 Vibration    19          0.794              1.397              0.848
 Vibration    20          0.807              1.366              0.802
 Vibration    21          0.848              1.267              0.677
 Vibration    22          0.876              1.203              0.607
 Vibration    23          0.889              1.175              0.579
 Vibration    24          0.897              1.158              0.561
 Vibration    25          0.911              1.128              0.533
 Vibration    26          0.937              1.075              0.486
 Vibration    27          0.969              1.010              0.432

 Optimization completed.
    -- Stationary point found.
 Normal termination of Gaussian 16 at Sat Dec 12 16:04:13 2020.

 ----------------------------------------------------------------------
 # B3LYP/6-311++G(d,p) empiricaldispersion=gd3bj scf=xqc pop=npa geom=c
 heck
 ----------------------------------------------------------------------

 ---------------------------------------
 CID_89560176_JID_10467_Energie_neutraal
 ---------------------------------------
 Structure from the checkpoint file:  "JID_10467.chk"
 Charge =  0 Multiplicity = 1

 SCF Done:  E(RB3LYP) =  -882.219339161     A.U. after   15 cycles
 Normal termination of Gaussian 16 at Sat Dec 12 16:10:06 2020.

 ----------------------------------------------------------------------
 # B3LYP/6-311++G(d,p) empiricaldispersion=gd3bj scf=xqc pop=npa geom=c
 heck
 ----------------------------------------------------------------------

 -------------------------------------
 CID_89560176_JID_10467_Energie_kation
 -------------------------------------
 Structure from the checkpoint file:  "JID_10467.chk"
 Charge =  1 Multiplicity = 2

 SCF Done:  E(UB3LYP) =  -881.920360286     A.U. after   32 cycles
 Normal termination of Gaussian 16 at Sat Dec 12 16:27:31 2020.
 Gaussian 16:  ES64L-G16RevA.03 25-Dec-2016

 ----------------------------------------------------------------------
 # B3LYP/6-311++G(d,p) empiricaldispersion=gd3bj scf=xqc pop=npa geom=c
 heck
 ----------------------------------------------------------------------

 ------------------------------------
 CID_89560176_JID_10467_Energie_anion
 ------------------------------------
 Structure from the checkpoint file:  "JID_10467.chk"
 Charge = -1 Multiplicity = 2

                         Standard orientation:
 ---------------------------------------------------------------------
 Center     Atomic      Atomic             Coordinates (Angstroms)
 Number     Number       Type             X           Y           Z
 ---------------------------------------------------------------------
      1          6           0        5.304546   -1.793982    0.021388
      2          6           0        4.288311   -0.706519    0.273295
      3          6           0        3.112851   -0.638297   -0.477084
      4          6           0        2.148612    0.349975   -0.239710
      5          6           0        2.369754    1.289537    0.769608
      6          6           0        3.544434    1.234628    1.522246
      7          6           0        4.495033    0.247787    1.278547
      8          6           0        0.875975    0.330032   -1.070380
      9          6           0       -0.092057    1.509042   -0.854139
     10          8           0        0.170370    2.689055   -0.996501
     11          6           0       -1.400482    0.951138   -0.450178
     12          6           0       -1.348471   -0.448645   -0.399194
     13          6           0        0.009783   -0.919691   -0.782718
     14          8           0        0.368636   -2.076123   -0.864983
     15          6           0       -2.450642   -1.209715   -0.046154
     16          6           0       -3.640522   -0.535208    0.268870
     17          6           0       -3.701663    0.875360    0.219026
     18          6           0       -2.582305    1.620999   -0.142541
     19          8           0       -4.687504   -1.324101    0.611114
     20          6           0       -5.926920   -0.711639    0.944710
     21          1           0        5.258477   -2.566493    0.799864
     22          1           0        5.131707   -2.286473   -0.940362
     23          1           0        6.325528   -1.395654    0.021316
     24          1           0        2.929986   -1.378420   -1.250306
     25          1           0        1.647772    2.076166    0.954987
     26          1           0        3.716931    1.973226    2.300325
     27          1           0        5.408772    0.216711    1.867513
     28          1           0        1.148039    0.305611   -2.135090
     29          1           0       -2.409322   -2.292717   -0.008804
     30          1           0       -4.624498    1.387694    0.462682
     31          1           0       -2.622530    2.705012   -0.184043
     32          1           0       -5.825670   -0.055762    1.818139
     33          1           0       -6.328494   -0.137441    0.100682
     34          1           0       -6.606145   -1.530922    1.182497
 ---------------------------------------------------------------------

 SCF Done:  E(UB3LYP) =  -882.249117949     A.U. after   27 cycles

 The electronic state is 2-A.
 Alpha  occ. eigenvalues --  -19.04619 -18.95650 -18.93688 -10.13444 -10.10929
 Alpha  occ. eigenvalues --  -10.10164 -10.07942 -10.07606 -10.07562 -10.06924
 Alpha  occ. eigenvalues --  -10.06602 -10.06379 -10.05483 -10.05447 -10.05411
 Alpha  occ. eigenvalues --  -10.04772 -10.04670 -10.03490 -10.02440 -10.02248
 Alpha  occ. eigenvalues --   -0.96452  -0.89327  -0.87761  -0.75122  -0.73209
 Alpha  occ. eigenvalues --   -0.68335  -0.66345  -0.64723  -0.63511  -0.60009
 Alpha  occ. eigenvalues --   -0.58523  -0.57434  -0.50748  -0.49328  -0.48977
 Alpha  occ. eigenvalues --   -0.46285  -0.43517  -0.41731  -0.39927  -0.38342
 Alpha  occ. eigenvalues --   -0.37544  -0.36973  -0.36007  -0.34337  -0.33432
 Alpha  occ. eigenvalues --   -0.32748  -0.32309  -0.31478  -0.30957  -0.30456
 Alpha  occ. eigenvalues --   -0.29773  -0.28860  -0.27793  -0.27126  -0.26457
 Alpha  occ. eigenvalues --   -0.25734  -0.24998  -0.24879  -0.24019  -0.23771
 Alpha  occ. eigenvalues --   -0.23140  -0.22001  -0.21333  -0.19465  -0.13979
 Alpha  occ. eigenvalues --   -0.13743  -0.13241  -0.11327  -0.10893  -0.08734
 Alpha  occ. eigenvalues --    0.02899
 Alpha virt. eigenvalues --    0.06621   0.07139   0.07409   0.08628   0.09183
 Alpha virt. eigenvalues --    0.09233   0.09721   0.10401   0.10672   0.11041
 Alpha virt. eigenvalues --    0.11535   0.11752   0.12131   0.12680   0.13792

  Beta  occ. eigenvalues --  -19.04582 -18.95364 -18.93138 -10.13445 -10.10855
  Beta  occ. eigenvalues --  -10.10035 -10.07669 -10.07606 -10.07564 -10.06917
  Beta  occ. eigenvalues --  -10.06602 -10.06372 -10.05493 -10.05482 -10.05445
  Beta  occ. eigenvalues --  -10.04802 -10.04500 -10.03420 -10.02283 -10.01998
  Beta  occ. eigenvalues --   -0.96371  -0.88815  -0.86783  -0.75101  -0.72856
  Beta  occ. eigenvalues --   -0.68171  -0.66199  -0.64625  -0.63243  -0.59829
  Beta  occ. eigenvalues --   -0.58494  -0.57281  -0.50583  -0.49010  -0.48592
  Beta  occ. eigenvalues --   -0.46221  -0.43237  -0.41449  -0.39844  -0.38195
  Beta  occ. eigenvalues --   -0.37450  -0.36830  -0.35832  -0.34230  -0.33197
  Beta  occ. eigenvalues --   -0.32726  -0.32164  -0.31163  -0.30806  -0.30375
  Beta  occ. eigenvalues --   -0.29580  -0.28770  -0.27582  -0.26635  -0.26154
  Beta  occ. eigenvalues --   -0.25378  -0.24804  -0.24387  -0.23672  -0.23308
  Beta  occ. eigenvalues --   -0.22422  -0.21203  -0.20965  -0.18192  -0.13906
  Beta  occ. eigenvalues --   -0.13631  -0.11795  -0.11036  -0.09732  -0.08288
  Beta virt. eigenvalues --    0.06605   0.07139   0.08116   0.08615   0.08851
  Beta virt. eigenvalues --    0.09202   0.09580   0.09989   0.10392   0.10672
  Beta virt. eigenvalues --    0.11029   0.11559   0.11740   0.12127   0.12670

 Mulliken charges and spin densities:
               1          2
     1  C   -0.543383  -0.000443
     2  C    0.417370   0.013608
     3  C   -0.664504   0.007350
     4  C    0.903416  -0.073669
     5  C   -0.344481   0.008818
     6  C   -0.587840   0.009053
     7  C   -0.372484   0.010348
     8  C    0.529934   0.031379
     9  C   -0.242817   0.081256
    10  O   -0.362364   0.097365
    11  C    0.064412   0.062100
    12  C    0.490086   0.200449
    13  C   -0.650189   0.135808
    14  O   -0.384101   0.197448
    15  C   -0.503882   0.084243
    16  C   -0.532490   0.033044
    17  C    0.326334   0.133927
    18  C   -0.231760  -0.038374
    19  O   -0.155828   0.006170
    20  C   -0.308560   0.001735
    21  H    0.151938  -0.000039
    22  H    0.138904   0.001060
    23  H    0.121369   0.000037
    24  H    0.229457  -0.003291
    25  H    0.179288   0.001854
    26  H    0.142988   0.000327
    27  H    0.111201  -0.000509
    28  H    0.192311   0.011822
    29  H    0.166761  -0.004431
    30  H    0.134009  -0.011474
    31  H    0.154352   0.004126
    32  H    0.138022  -0.000451
    33  H    0.137185  -0.000591
    34  H    0.155347  -0.000054
 Sum of Mulliken charges =  -1.00000   1.00000

 Dipole moment (field-independent basis, Debye):
    X=             -0.4578    Y=             -0.0156    Z=              2.3920  Tot=              2.4354
 Quadrupole moment (field-independent basis, Debye-Ang):
   XX=           -134.4763   YY=           -148.0775   ZZ=           -124.8058
   XY=             -5.6577   XZ=             -2.1598   YZ=              3.8411

 Summary of Natural Population Analysis:

                                       Natural Population
                Natural  -----------------------------------------------
    Atom  No    Charge         Core      Valence    Rydberg      Total
 -----------------------------------------------------------------------
      C    1   -0.29033      0.99964     2.28612    0.00457     3.29033
      C    2   -0.02173      0.99952     2.01440    0.00782     3.02173
      C    3   -0.09542      0.99947     2.08755    0.00840     3.09542
      C    4    0.00836      0.99950     1.98304    0.00910     2.99164
      C    5   -0.10382      0.99951     2.09607    0.00824     3.10382
      C    6   -0.10032      0.99958     2.09166    0.00908     3.10032
      C    7   -0.11527      0.99952     2.10696    0.00879     3.11527
      C    8   -0.19897      0.99950     2.18591    0.01356     3.19897
      C    9    0.29868      0.99960     1.68060    0.02112     2.70132
      O   10   -0.27537      0.99987     3.26843    0.00706     4.27537
      C   11   -0.04531      0.99943     2.03725    0.00863     3.04531
      C   12    0.00356      0.99945     1.98835    0.00864     2.99644
      C   13    0.31517      0.99961     1.66421    0.02101     2.68483
      O   14   -0.23904      0.99987     3.23235    0.00681     4.23904
      C   15   -0.08811      0.99940     2.07912    0.00959     3.08811
      C   16    0.17073      0.99943     1.81815    0.01169     2.82927
      C   17   -0.12087      0.99954     2.11370    0.00763     3.12087
      C   18   -0.09427      0.99954     2.08519    0.00954     3.09427
      O   19   -0.27288      0.99985     3.26298    0.01006     4.27288
      C   20   -0.10095      0.99961     2.09320    0.00814     3.10095
      H   21    0.10085      0.00000     0.39820    0.00095     0.39915
      H   22    0.10119      0.00000     0.39797    0.00084     0.39881
      H   23    0.09664      0.00000     0.40240    0.00096     0.40336
      H   24    0.10716      0.00000     0.39142    0.00142     0.39284
      H   25    0.11056      0.00000     0.38811    0.00133     0.38944
      H   26    0.09394      0.00000     0.40502    0.00104     0.40606
      H   27    0.09147      0.00000     0.40719    0.00133     0.40853
      H   28    0.11697      0.00000     0.38169    0.00134     0.38303
      H   29    0.10519      0.00000     0.39264    0.00216     0.39481
      H   30    0.09241      0.00000     0.40650    0.00109     0.40759
      H   31    0.10024      0.00000     0.39779    0.00196     0.39976
      H   32    0.08116      0.00000     0.41723    0.00160     0.41884
      H   33    0.08096      0.00000     0.41744    0.00160     0.41904
      H   34    0.08742      0.00000     0.41178    0.00081     0.41258
 =======================================================================
   * Total *    0.00000     19.99146    49.79060    0.21794    70.00000

 Normal termination of Gaussian 16 at Sat Dec 12 16:41:52 2020.
