 Gaussian 16, Revision A.03,

 -----------------------------------------------------------
 # opt freq B3LYP/6-31G(d) empiricaldispersion=gd3bj scf=xqc
 -----------------------------------------------------------

 ------------------------------
 CID_62916665_JID_4055_neutraal
 ------------------------------
 Symbolic Z-matrix:
 Charge =  0 Multiplicity = 1

 SCF Done:  E(RB3LYP) =  -743.574684815     A.U. after   15 cycles
 SCF Done:  E(RB3LYP) =  -743.580178604     A.U. after   12 cycles
 SCF Done:  E(RB3LYP) =  -743.580728269     A.U. after   12 cycles
 SCF Done:  E(RB3LYP) =  -743.580817864     A.U. after   12 cycles
 SCF Done:  E(RB3LYP) =  -743.581012688     A.U. after   11 cycles
 SCF Done:  E(RB3LYP) =  -743.581166257     A.U. after   11 cycles
 SCF Done:  E(RB3LYP) =  -743.581205151     A.U. after   12 cycles
 SCF Done:  E(RB3LYP) =  -743.581296183     A.U. after   11 cycles
 SCF Done:  E(RB3LYP) =  -743.581308485     A.U. after   10 cycles
 SCF Done:  E(RB3LYP) =  -743.581335256     A.U. after   11 cycles
 SCF Done:  E(RB3LYP) =  -743.581357712     A.U. after    9 cycles
 SCF Done:  E(RB3LYP) =  -743.581357692     A.U. after    9 cycles
 SCF Done:  E(RB3LYP) =  -743.581357630     A.U. after    8 cycles
 SCF Done:  E(RB3LYP) =  -743.581357560     A.U. after    8 cycles
 SCF Done:  E(RB3LYP) =  -743.581357519     A.U. after    7 cycles
 Optimization completed.
    -- Stationary point found.
 Normal termination of Gaussian 16 at Thu Dec 10 09:18:19 2020.

 --------------------------------------------------------------------
 #N Geom=AllCheck Guess=TCheck SCRF=Check GenChk RB3LYP/6-31G(d) Freq
 --------------------------------------------------------------------

 Structure from the checkpoint file:  "JID_4055.chk"
 ------------------------------
 CID_62916665_JID_4055_neutraal
 ------------------------------
 Charge =  0 Multiplicity = 1

 SCF Done:  E(RB3LYP) =  -743.581357519     A.U. after    1 cycles

  Exact polarizability: 120.525  -6.030  89.877   3.563  -0.010  91.837
 Approx polarizability: 146.211 -10.876 136.257  12.784  -3.194 149.027

                      1                      2                      3
                      A                      A                      A
 Frequencies --      9.2529                31.3994                40.8731
 Red. masses --      6.3455                 6.0139                 6.9949
 Frc consts  --      0.0003                 0.0035                 0.0069
 IR Inten    --      0.1409                 0.1309                 0.9530

                      4                      5                      6
                      A                      A                      A
 Frequencies --     52.9953                74.2333               115.5089
 Red. masses --      6.3240                 4.4351                 3.3691
 Frc consts  --      0.0105                 0.0144                 0.0265
 IR Inten    --      4.2447                 1.0925                 2.5194

                      7                      8                      9
                      A                      A                      A
 Frequencies --    139.3603               176.5182               199.2865
 Red. masses --      3.9786                 3.1443                 3.0715
 Frc consts  --      0.0455                 0.0577                 0.0719
 IR Inten    --      0.4974                 4.2496                10.1217

                     10                     11                     12
                      A                      A                      A
 Frequencies --    236.5487               308.4929               331.6954
 Red. masses --      3.8865                 5.3904                 1.2001
 Frc consts  --      0.1281                 0.3022                 0.0778
 IR Inten    --     10.4199                38.3024                77.2661

                     13                     14                     15
                      A                      A                      A
 Frequencies --    368.8223               397.2165               400.2707
 Red. masses --      2.6059                 2.6823                 2.5463
 Frc consts  --      0.2089                 0.2494                 0.2404
 IR Inten    --      0.5512                 2.1525                 8.3782

                     16                     17                     18
                      A                      A                      A
 Frequencies --    450.1569               504.0886               519.0621
 Red. masses --      3.0956                 2.8419                 2.8041
 Frc consts  --      0.3696                 0.4255                 0.4451
 IR Inten    --     11.7685                13.5935                 7.7515

                     19                     20                     21
                      A                      A                      A
 Frequencies --    547.2336               596.9387               612.6391
 Red. masses --      4.4705                 4.8080                 3.9381
 Frc consts  --      0.7888                 1.0094                 0.8708
 IR Inten    --     20.8747                15.8930                70.5738

                     22                     23                     24
                      A                      A                      A
 Frequencies --    698.5161               728.2457               755.5975
 Red. masses --      1.4799                 3.5156                 3.0505
 Frc consts  --      0.4254                 1.0985                 1.0261
 IR Inten    --    102.2674                21.8070                20.3612

                     25                     26                     27
                      A                      A                      A
 Frequencies --    815.8190               830.9735               850.0158
 Red. masses --      4.3611                 2.0787                 4.4884
 Frc consts  --      1.7101                 0.8457                 1.9107
 IR Inten    --      0.4749                 5.8435                 4.8550

                     28                     29                     30
                      A                      A                      A
 Frequencies --    877.8994               923.0664               960.4121
 Red. masses --      2.5573                 1.9285                 3.9945
 Frc consts  --      1.1613                 0.9681                 2.1708
 IR Inten    --     13.3461                 1.1330                10.9892

                     31                     32                     33
                      A                      A                      A
 Frequencies --    983.9960              1002.6219              1015.1967
 Red. masses --      2.3881                 2.2562                 2.0526
 Frc consts  --      1.3624                 1.3363                 1.2464
 IR Inten    --     13.5779                 6.7459                15.3624

                     34                     35                     36
                      A                      A                      A
 Frequencies --   1042.8365              1069.6234              1095.9333
 Red. masses --      2.4270                 1.9257                 1.7839
 Frc consts  --      1.5551                 1.2981                 1.2624
 IR Inten    --      4.5389                21.4922                 6.2217

                     37                     38                     39
                      A                      A                      A
 Frequencies --   1127.4791              1154.5445              1202.4274
 Red. masses --      1.9522                 4.7271                 2.1279
 Frc consts  --      1.4622                 3.7125                 1.8127
 IR Inten    --     80.6646               149.4441               202.7936

                     40                     41                     42
                      A                      A                      A
 Frequencies --   1205.8521              1210.8194              1224.6212
 Red. masses --      1.8577                 1.1233                 2.9926
 Frc consts  --      1.5916                 0.9703                 2.6443
 IR Inten    --      9.8522                16.0587                48.2939

                     43                     44                     45
                      A                      A                      A
 Frequencies --   1245.0271              1284.2390              1301.4767
 Red. masses --      1.2335                 1.1937                 1.4498
 Frc consts  --      1.1266                 1.1599                 1.4468
 IR Inten    --     43.4421                12.3302                 5.7361

                     46                     47                     48
                      A                      A                      A
 Frequencies --   1325.1229              1330.9198              1340.1650
 Red. masses --      1.5105                 1.1980                 1.3344
 Frc consts  --      1.5627                 1.2503                 1.4121
 IR Inten    --      6.0589                 2.9517                 2.6632

                     49                     50                     51
                      A                      A                      A
 Frequencies --   1373.6230              1380.9668              1389.8936
 Red. masses --      1.3439                 1.3918                 1.5437
 Frc consts  --      1.4940                 1.5638                 1.7570
 IR Inten    --     19.6158                11.6589                 8.2760

                     52                     53                     54
                      A                      A                      A
 Frequencies --   1400.3835              1408.1393              1446.0079
 Red. masses --      2.2812                 1.3784                 1.3003
 Frc consts  --      2.6358                 1.6104                 1.6019
 IR Inten    --     31.6030                11.0290                72.5801

                     55                     56                     57
                      A                      A                      A
 Frequencies --   1469.8359              1493.8888              1512.7931
 Red. masses --      5.2906                 1.1077                 1.0982
 Frc consts  --      6.7343                 1.4565                 1.4808
 IR Inten    --    188.8944                12.0439                 2.2640

                     58                     59                     60
                      A                      A                      A
 Frequencies --   1521.8286              1537.4783              1556.5732
 Red. masses --      1.0814                 1.0882                 1.0870
 Frc consts  --      1.4756                 1.5156                 1.5517
 IR Inten    --      5.9911                 1.2820                 4.2183

                     61                     62                     63
                      A                      A                      A
 Frequencies --   1757.1883              1853.5124              3019.6547
 Red. masses --     10.5310                10.1382                 1.0725
 Frc consts  --     19.1583                20.5211                 5.7618
 IR Inten    --    289.8147               281.2150                47.8673

                     64                     65                     66
                      A                      A                      A
 Frequencies --   3039.8473              3068.8498              3072.9952
 Red. masses --      1.0662                 1.0613                 1.0696
 Frc consts  --      5.8050                 5.8887                 5.9510
 IR Inten    --     16.8919                20.3005                17.0078

                     67                     68                     69
                      A                      A                      A
 Frequencies --   3082.4385              3104.5710              3114.1958
 Red. masses --      1.0577                 1.1025                 1.0966
 Frc consts  --      5.9211                 6.2611                 6.2662
 IR Inten    --     19.9116                23.9717                 7.6114

                     70                     71                     72
                      A                      A                      A
 Frequencies --   3127.2151              3138.0217              3141.5736
 Red. masses --      1.0886                 1.1093                 1.1008
 Frc consts  --      6.2721                 6.4359                 6.4010
 IR Inten    --     41.8934                12.3950                18.2878

                     73                     74                     75
                      A                      A                      A
 Frequencies --   3169.3993              3680.0412              3723.6495
 Red. masses --      1.0929                 1.0640                 1.0656
 Frc consts  --      6.4684                 8.4901                 8.7050
 IR Inten    --      3.6998                59.3851                 9.0232

 - Thermochemistry -
 -------------------
 Temperature   298.150 Kelvin.  Pressure   1.00000 Atm.
 Atom     1 has atomic number  6 and mass  12.00000

 Molecular mass:   203.07937 amu.
 Principal axes and moments of inertia in atomic units:
                           1         2         3
     Eigenvalues --  1380.753634927.965655341.30120
           X            0.99999  -0.00165  -0.00492
           Y            0.00171   0.99993   0.01159
           Z            0.00490  -0.01160   0.99992
 This molecule is an asymmetric top.
 Rotational symmetry number  1.
 Warning -- assumption of classical behavior for rotation
           may cause significant error
 Rotational temperatures (Kelvin)      0.06273     0.01758     0.01622
 Rotational constants (GHZ):           1.30707     0.36622     0.33788
 Zero-point vibrational energy     581986.9 (Joules/Mol)
                                  139.09820 (Kcal/Mol)
 Warning -- explicit consideration of  21 degrees of freedom as
           vibrations may cause significant error
 Vibrational temperatures:     13.31    45.18    58.81    76.25   106.81
          (Kelvin)            166.19   200.51   253.97   286.73   340.34
                              443.85   477.24   530.65   571.51   575.90
                              647.68   725.27   746.81   787.35   858.86
                              881.45  1005.01  1047.78  1087.14  1173.78
                             1195.59  1222.98  1263.10  1328.09  1381.82
                             1415.75  1442.55  1460.64  1500.41  1538.95
                             1576.80  1622.19  1661.13  1730.02  1734.95
                             1742.10  1761.96  1791.32  1847.73  1872.53
                             1906.56  1914.90  1928.20  1976.34  1986.90
                             1999.75  2014.84  2026.00  2080.48  2114.77
                             2149.37  2176.57  2189.57  2212.09  2239.56
                             2528.20  2666.79  4344.61  4373.66  4415.39
                             4421.35  4434.94  4466.79  4480.63  4499.37
                             4514.91  4520.02  4560.06  5294.76  5357.50

 Zero-point correction=                           0.221667 (Hartree/Particle)
 Thermal correction to Energy=                    0.235865
 Thermal correction to Enthalpy=                  0.236809
 Thermal correction to Gibbs Free Energy=         0.176956
 Sum of electronic and zero-point Energies=           -743.359690
 Sum of electronic and thermal Energies=              -743.345493
 Sum of electronic and thermal Enthalpies=            -743.344549
 Sum of electronic and thermal Free Energies=         -743.404402

                     E (Thermal)             CV                S
                      KCal/Mol        Cal/Mol-Kelvin    Cal/Mol-Kelvin
 Total                  148.007             50.844            125.972
 Electronic               0.000              0.000              0.000
 Translational            0.889              2.981             41.830
 Rotational               0.889              2.981             31.964
 Vibrational            146.230             44.882             52.179
 Vibration     1          0.593              1.987              8.165
 Vibration     2          0.594              1.983              5.739
 Vibration     3          0.594              1.981              5.216
 Vibration     4          0.596              1.976              4.702
 Vibration     5          0.599              1.966              4.038
 Vibration     6          0.608              1.937              3.174
 Vibration     7          0.615              1.914              2.813
 Vibration     8          0.628              1.871              2.365
 Vibration     9          0.637              1.841              2.140
 Vibration    10          0.655              1.785              1.829
 Vibration    11          0.698              1.658              1.370
 Vibration    12          0.714              1.612              1.252
 Vibration    13          0.741              1.536              1.085
 Vibration    14          0.764              1.476              0.973
 Vibration    15          0.766              1.470              0.962
 Vibration    16          0.809              1.361              0.795
 Vibration    17          0.859              1.241              0.648
 Vibration    18          0.874              1.208              0.612
 Vibration    19          0.902              1.146              0.550
 Vibration    20          0.955              1.038              0.455
 Vibration    21          0.972              1.005              0.428

                           ! Non-Optimized Parameters !
 Normal termination of Gaussian 16 at Thu Dec 10 09:25:05 2020.

 ----------------------------------------------------------------------
 # B3LYP/6-311++G(d,p) empiricaldispersion=gd3bj scf=xqc pop=npa geom=c
 heck
 ----------------------------------------------------------------------

 --------------------------------------
 CID_62916665_JID_4055_Energie_neutraal
 --------------------------------------
 Structure from the checkpoint file:  "JID_4055.chk"
 Charge =  0 Multiplicity = 1

 SCF Done:  E(RB3LYP) =  -743.820607524     A.U. after   14 cycles
 Normal termination of Gaussian 16 at Thu Dec 10 09:27:32 2020.

 ----------------------------------------------------------------------
 # B3LYP/6-311++G(d,p) empiricaldispersion=gd3bj scf=xqc pop=npa geom=c
 heck
 ----------------------------------------------------------------------

 ------------------------------------
 CID_62916665_JID_4055_Energie_kation
 ------------------------------------
 Structure from the checkpoint file:  "JID_4055.chk"
 Charge =  1 Multiplicity = 2

 SCF Done:  E(UB3LYP) =  -743.492137000     A.U. after   26 cycles
 Normal termination of Gaussian 16 at Thu Dec 10 09:34:16 2020.
 Gaussian 16:  ES64L-G16RevA.03 25-Dec-2016

 ----------------------------------------------------------------------
 # B3LYP/6-311++G(d,p) empiricaldispersion=gd3bj scf=xqc pop=npa geom=c
 heck
 ----------------------------------------------------------------------

 -----------------------------------
 CID_62916665_JID_4055_Energie_anion
 -----------------------------------
 Structure from the checkpoint file:  "JID_4055.chk"
 Charge = -1 Multiplicity = 2

                         Standard orientation:
 ---------------------------------------------------------------------
 Center     Atomic      Atomic             Coordinates (Angstroms)
 Number     Number       Type             X           Y           Z
 ---------------------------------------------------------------------
      1          6           0        3.599001    0.016903   -0.459790
      2          6           0        2.461251    0.977758   -0.855969
      3          7           0        1.411224    0.702145    0.140099
      4          6           0        1.853431   -0.269094    1.149148
      5          6           0        2.897413   -1.075511    0.368052
      6          8           0        2.284289   -2.064579   -0.449807
      7          6           0        0.210626    1.334598    0.054913
      8          8           0       -0.031281    2.155896   -0.827134
      9          6           0       -0.856967    0.940609    1.083373
     10          8           0       -1.188723   -0.446049    1.024792
     11          6           0       -1.770462   -0.847584   -0.193355
     12          6           0       -3.244060   -0.498530   -0.374383
     13          8           0       -3.859405   -0.765076   -1.380695
     14          8           0       -3.788288    0.116219    0.696554
     15          1           0        4.337123    0.534809    0.162847
     16          1           0        4.117433   -0.408680   -1.321902
     17          1           0        2.755031    2.031432   -0.826426
     18          1           0        2.067272    0.786978   -1.860243
     19          1           0        1.024299   -0.888869    1.488684
     20          1           0        2.311616    0.235896    2.012345
     21          1           0        3.582245   -1.617651    1.023758
     22          1           0        1.584020   -1.623722   -0.958349
     23          1           0       -0.505308    1.112201    2.105210
     24          1           0       -1.732349    1.568834    0.896646
     25          1           0       -1.241690   -0.442102   -1.067634
     26          1           0       -1.692715   -1.938541   -0.236965
     27          1           0       -4.719672    0.288209    0.459734
 ---------------------------------------------------------------------

 SCF Done:  E(UB3LYP) =  -743.812879959     A.U. after   33 cycles
 SCF Done:  E(UB3LYP) =  -743.812879959     a.u. after    1 cycles

 The electronic state is 2-A.
 Alpha  occ. eigenvalues --  -19.08653 -19.05590 -19.03427 -19.03220 -18.99776
 Alpha  occ. eigenvalues --  -14.25289 -10.22361 -10.17768 -10.15202 -10.13651
 Alpha  occ. eigenvalues --  -10.13559 -10.11322 -10.11113 -10.08074  -1.02906
 Alpha  occ. eigenvalues --   -0.97073  -0.94657  -0.93965  -0.93851  -0.85121
 Alpha  occ. eigenvalues --   -0.69991  -0.67489  -0.64933  -0.61112  -0.55715
 Alpha  occ. eigenvalues --   -0.53095  -0.51093  -0.46760  -0.44524  -0.42827
 Alpha  occ. eigenvalues --   -0.41699  -0.40959  -0.40553  -0.38858  -0.37769
 Alpha  occ. eigenvalues --   -0.35930  -0.35221  -0.34905  -0.33647  -0.32101
 Alpha  occ. eigenvalues --   -0.31334  -0.30497  -0.30002  -0.28834  -0.27721
 Alpha  occ. eigenvalues --   -0.26281  -0.25839  -0.24668  -0.24144  -0.22553
 Alpha  occ. eigenvalues --   -0.19259  -0.18725  -0.16060  -0.15387   0.03946
 Alpha virt. eigenvalues --    0.05495   0.07208   0.07543   0.08003   0.08332
 Alpha virt. eigenvalues --    0.08579   0.09739   0.10615   0.10820   0.11213
 Alpha virt. eigenvalues --    0.11899   0.12763   0.12971   0.13741   0.14544

  Beta  occ. eigenvalues --  -19.08597 -19.05585 -19.03399 -19.03208 -18.99771
  Beta  occ. eigenvalues --  -14.25290 -10.22358 -10.17765 -10.15175 -10.13633
  Beta  occ. eigenvalues --  -10.13543 -10.11302 -10.11079 -10.08043  -1.02835
  Beta  occ. eigenvalues --   -0.97062  -0.94632  -0.93909  -0.93801  -0.85102
  Beta  occ. eigenvalues --   -0.69950  -0.67440  -0.64875  -0.61060  -0.55663
  Beta  occ. eigenvalues --   -0.53001  -0.51024  -0.46703  -0.44489  -0.42790
  Beta  occ. eigenvalues --   -0.41656  -0.40919  -0.40514  -0.38821  -0.37738
  Beta  occ. eigenvalues --   -0.35890  -0.35168  -0.34872  -0.33603  -0.32052
  Beta  occ. eigenvalues --   -0.31302  -0.30460  -0.29975  -0.28799  -0.27672
  Beta  occ. eigenvalues --   -0.26242  -0.25809  -0.24623  -0.24112  -0.22526
  Beta  occ. eigenvalues --   -0.19225  -0.18693  -0.16044  -0.15368
  Beta virt. eigenvalues --    0.06356   0.07010   0.07620   0.07976   0.08509
  Beta virt. eigenvalues --    0.08763   0.08927   0.10199   0.10903   0.11202
  Beta virt. eigenvalues --    0.11466   0.12024   0.12966   0.13398   0.13856

 Mulliken charges and spin densities:
               1          2
     1  C    0.398394  -0.887417
     2  C    0.286295  -0.422664
     3  N   -0.020454   0.151813
     4  C    0.089083  -0.564437
     5  C    0.317521  -0.482083
     6  O   -0.124869  -0.047828
     7  C    0.001146   0.120666
     8  O   -0.299968   0.017774
     9  C   -0.403029  -0.263752
    10  O    0.019027   0.005520
    11  C    0.391547  -0.603321
    12  C    0.192682  -0.214606
    13  O   -0.294357   0.020620
    14  O   -0.165741  -0.017486
    15  H   -0.285172   0.452082
    16  H   -0.080583   0.266263
    17  H   -0.065151   0.264799
    18  H    0.040457   0.152292
    19  H    0.344898  -0.087965
    20  H   -0.670125   0.856118
    21  H   -0.366951   0.590168
    22  H    0.118999   0.112017
    23  H   -0.267082   0.455107
    24  H    0.162511   0.056104
    25  H    0.047229   0.185317
    26  H   -0.037773   0.260752
    27  H   -0.328533   0.624147
 Sum of Mulliken charges =  -1.00000   1.00000

 Dipole moment (field-independent basis, Debye):
    X=             -0.2714    Y=             -1.1156    Z=             -1.2968  Tot=              1.7320
 Quadrupole moment (field-independent basis, Debye-Ang):
   XX=           -169.3152   YY=           -119.3434   ZZ=           -118.1953
   XY=              1.0148   XZ=             -9.8888   YZ=             -0.9102

 Summary of Natural Population Analysis:

                                       Natural Population
                Natural  -----------------------------------------------
    Atom  No    Charge         Core      Valence    Rydberg      Total
 -----------------------------------------------------------------------
      C    1   -0.20878      0.99962     2.20100    0.00817     3.20878
      C    2   -0.08777      0.99963     2.07586    0.01228     3.08777
      N    3   -0.25922      0.99965     2.74715    0.01242     3.75922
      C    4   -0.09981      0.99959     2.08937    0.01086     3.09981
      C    5    0.06020      0.99957     1.92469    0.01554     2.93980
      O    6   -0.36757      0.99990     3.36132    0.00634     4.36757
      C    7    0.32632      0.99963     1.65189    0.02217     2.67368
      O    8   -0.32184      0.99988     3.31627    0.00569     4.32184
      C    9   -0.04996      0.99954     2.03840    0.01203     3.04996
      O   10   -0.29077      0.99989     3.28122    0.00966     4.29077
      C   11   -0.06188      0.99953     2.04918    0.01317     3.06188
      C   12    0.39277      0.99974     1.58231    0.02517     2.60723
      O   13   -0.30572      0.99987     3.29944    0.00641     4.30572
      O   14   -0.33827      0.99988     3.33051    0.00789     4.33827
      H   15    0.10741      0.00000     0.38987    0.00272     0.39259
      H   16    0.10710      0.00000     0.39187    0.00102     0.39290
      H   17    0.10479      0.00000     0.39411    0.00109     0.39521
      H   18    0.09905      0.00000     0.39982    0.00113     0.40095
      H   19    0.11531      0.00000     0.38276    0.00193     0.38469
      H   20    0.10103      0.00000     0.39522    0.00374     0.39897
      H   21    0.09569      0.00000     0.40290    0.00141     0.40431
      H   22    0.22662      0.00000     0.26989    0.00349     0.27338
      H   23    0.10128      0.00000     0.39724    0.00147     0.39872
      H   24    0.09966      0.00000     0.39867    0.00168     0.40034
      H   25    0.10064      0.00000     0.39786    0.00150     0.39936
      H   26    0.10847      0.00000     0.39033    0.00120     0.39153
      H   27    0.24522      0.00000     0.24029    0.01449     0.25478
 =======================================================================
   * Total *    0.00000     13.99590    39.79944    0.20466    54.00000

 Normal termination of Gaussian 16 at Thu Dec 10 09:42:37 2020.
