 Gaussian 16, Revision A.03,

 -----------------------------------------------------------
 # opt freq B3LYP/6-31G(d) empiricaldispersion=gd3bj scf=xqc
 -----------------------------------------------------------

 ------------------------------
 CID_67960415_JID_1093_neutraal
 ------------------------------
 Symbolic Z-matrix:
 Charge =  0 Multiplicity = 1

 SCF Done:  E(RB3LYP) =  -497.944704487     A.U. after   14 cycles
 SCF Done:  E(RB3LYP) =  -497.950441212     A.U. after   12 cycles
 SCF Done:  E(RB3LYP) =  -497.953303793     A.U. after   12 cycles
 SCF Done:  E(RB3LYP) =  -497.955310077     A.U. after   12 cycles
 SCF Done:  E(RB3LYP) =  -497.956464376     A.U. after   12 cycles
 SCF Done:  E(RB3LYP) =  -497.957214467     A.U. after   12 cycles
 SCF Done:  E(RB3LYP) =  -497.957434838     A.U. after   11 cycles
 SCF Done:  E(RB3LYP) =  -497.957512497     A.U. after   10 cycles
 SCF Done:  E(RB3LYP) =  -497.957535023     A.U. after   10 cycles
 SCF Done:  E(RB3LYP) =  -497.957538729     A.U. after    9 cycles
 SCF Done:  E(RB3LYP) =  -497.957540137     A.U. after    8 cycles
 SCF Done:  E(RB3LYP) =  -497.957540509     A.U. after    8 cycles
 SCF Done:  E(RB3LYP) =  -497.957540614     A.U. after    7 cycles
 SCF Done:  E(RB3LYP) =  -497.957540642     A.U. after    7 cycles
 Optimization completed.
    -- Stationary point found.
 Normal termination of Gaussian 16 at Tue Dec  8 19:13:57 2020.

 --------------------------------------------------------------------
 #N Geom=AllCheck Guess=TCheck SCRF=Check GenChk RB3LYP/6-31G(d) Freq
 --------------------------------------------------------------------

 Structure from the checkpoint file:  "JID_1093.chk"
 ------------------------------
 CID_67960415_JID_1093_neutraal
 ------------------------------
 Charge =  0 Multiplicity = 1

 SCF Done:  E(RB3LYP) =  -497.957540642     A.U. after    1 cycles

  Exact polarizability: 135.137  -6.143  84.146   4.176   0.108  80.310
 Approx polarizability: 177.467  -9.324 124.367   7.686   1.184 121.673

                      1                      2                      3
                      A                      A                      A
 Frequencies --     41.7645                47.6664                73.5617
 Red. masses --      3.8388                 5.0002                 2.6120
 Frc consts  --      0.0039                 0.0067                 0.0083
 IR Inten    --      0.2163                 1.5629                 0.6225

                      4                      5                      6
                      A                      A                      A
 Frequencies --     98.7495               122.4184               190.6144
 Red. masses --      2.5237                 3.9290                 2.4441
 Frc consts  --      0.0145                 0.0347                 0.0523
 IR Inten    --      1.1757                 1.9139                 3.8210

                      7                      8                      9
                      A                      A                      A
 Frequencies --    214.8620               295.3725               315.5096
 Red. masses --      2.9325                 2.6446                 2.9556
 Frc consts  --      0.0798                 0.1359                 0.1734
 IR Inten    --      1.3478                 3.3035                 1.9381

                     10                     11                     12
                      A                      A                      A
 Frequencies --    369.9203               403.2539               426.0692
 Red. masses --      2.2605                 2.2992                 2.1750
 Frc consts  --      0.1823                 0.2203                 0.2326
 IR Inten    --     11.8997                16.9649                 7.2789

                     13                     14                     15
                      A                      A                      A
 Frequencies --    506.2522               546.3430               563.4600
 Red. masses --      1.8692                 1.3247                 3.9671
 Frc consts  --      0.2822                 0.2330                 0.7421
 IR Inten    --     22.6147                72.5910                14.2462

                     16                     17                     18
                      A                      A                      A
 Frequencies --    579.2441               681.7332               703.4934
 Red. masses --      2.0707                 2.3692                 1.3394
 Frc consts  --      0.4093                 0.6488                 0.3905
 IR Inten    --      2.8148                28.1232                31.6441

                     19                     20                     21
                      A                      A                      A
 Frequencies --    759.4676               804.5941               894.0612
 Red. masses --      2.7346                 1.2786                 2.3402
 Frc consts  --      0.9293                 0.4877                 1.1021
 IR Inten    --      1.6899                33.9752                 0.7011

                     22                     23                     24
                      A                      A                      A
 Frequencies --    902.6424               915.9717               936.8460
 Red. masses --      3.1256                 2.3863                 1.8843
 Frc consts  --      1.5004                 1.1796                 0.9744
 IR Inten    --     40.4688                 4.7511                12.2221

                     25                     26                     27
                      A                      A                      A
 Frequencies --    947.8070               959.2792               981.7401
 Red. masses --      1.4117                 2.1865                 2.3629
 Frc consts  --      0.7472                 1.1855                 1.3418
 IR Inten    --     33.3231                 7.5573                 3.1070

                     28                     29                     30
                      A                      A                      A
 Frequencies --   1030.4282              1059.1363              1087.5800
 Red. masses --      1.1181                 2.1673                 1.9915
 Frc consts  --      0.6995                 1.4324                 1.3879
 IR Inten    --     12.2057                21.9957                70.3809

                     31                     32                     33
                      A                      A                      A
 Frequencies --   1106.4991              1134.3525              1136.3710
 Red. masses --      3.1848                 1.7191                 1.2896
 Frc consts  --      2.2974                 1.3033                 0.9811
 IR Inten    --     72.8538                16.2594                12.7003

                     34                     35                     36
                      A                      A                      A
 Frequencies --   1169.8836              1198.6937              1215.8597
 Red. masses --      2.3383                 1.8064                 2.0899
 Frc consts  --      1.8856                 1.5292                 1.8203
 IR Inten    --     69.7838                23.3443                12.3550

                     37                     38                     39
                      A                      A                      A
 Frequencies --   1229.6095              1251.2571              1261.6303
 Red. masses --      1.1783                 1.4433                 3.1126
 Frc consts  --      1.0496                 1.3314                 2.9190
 IR Inten    --      8.3276                45.7175                10.8874

                     40                     41                     42
                      A                      A                      A
 Frequencies --   1307.3034              1332.3364              1334.4195
 Red. masses --      1.4241                 1.2943                 1.3947
 Frc consts  --      1.4340                 1.3537                 1.4633
 IR Inten    --     12.2021                 3.3356                57.2857

                     43                     44                     45
                      A                      A                      A
 Frequencies --   1368.7320              1386.0397              1390.6974
 Red. masses --      1.5600                 1.2769                 1.2267
 Frc consts  --      1.7219                 1.4453                 1.3978
 IR Inten    --     25.3028                23.0052                 4.6075

                     46                     47                     48
                      A                      A                      A
 Frequencies --   1410.3760              1462.5457              1471.1961
 Red. masses --      1.4193                 1.3976                 1.3780
 Frc consts  --      1.6634                 1.7614                 1.7573
 IR Inten    --     50.6481               101.9700                30.9722

                     49                     50                     51
                      A                      A                      A
 Frequencies --   1477.5989              1506.6525              1509.8068
 Red. masses --      1.2046                 1.0986                 1.1251
 Frc consts  --      1.5496                 1.4693                 1.5110
 IR Inten    --      4.5970                17.8252                11.6022

                     52                     53                     54
                      A                      A                      A
 Frequencies --   1548.4306              1564.2934              1696.8575
 Red. masses --      1.0958                 1.0961                 6.0430
 Frc consts  --      1.5479                 1.5803                10.2516
 IR Inten    --      0.3908                 6.3712                14.3825

                     55                     56                     57
                      A                      A                      A
 Frequencies --   1731.2940              2828.8121              2957.0849
 Red. masses --      4.4576                 1.0747                 1.0719
 Frc consts  --      7.8721                 5.0668                 5.5222
 IR Inten    --      1.2436               100.0752                57.9898

                     58                     59                     60
                      A                      A                      A
 Frequencies --   2973.2228              3039.2802              3067.4327
 Red. masses --      1.0739                 1.0610                 1.0870
 Frc consts  --      5.5933                 5.7746                 6.0262
 IR Inten    --     82.2193                38.9930                45.9353

                     61                     62                     63
                      A                      A                      A
 Frequencies --   3082.3196              3090.8214              3102.6839
 Red. masses --      1.1030                 1.0887                 1.0920
 Frc consts  --      6.1743                 6.1279                 6.1937
 IR Inten    --     20.1034                34.1515                44.7576

                     64                     65                     66
                      A                      A                      A
 Frequencies --   3151.1906              3164.4070              3234.0361
 Red. masses --      1.0590                 1.0915                 1.1151
 Frc consts  --      6.1958                 6.4395                 6.8717
 IR Inten    --     18.0244                 6.9470                18.1925

                     67                     68                     69
                      A                      A                      A
 Frequencies --   3261.9344              3284.8812              3633.0349
 Red. masses --      1.0874                 1.1081                 1.0648
 Frc consts  --      6.8169                 7.0446                 8.2802
 IR Inten    --      0.6044                 4.7279                77.9812

 - Thermochemistry -
 -------------------
 Temperature   298.150 Kelvin.  Pressure   1.00000 Atm.
 Atom     1 has atomic number  6 and mass  12.00000

 Molecular mass:   154.11061 amu.
 Principal axes and moments of inertia in atomic units:
                           1         2         3
     Eigenvalues --   650.067013534.907093642.78797
           X            0.99998  -0.00299   0.00600
           Y            0.00293   0.99995   0.00919
           Z           -0.00603  -0.00917   0.99994
 This molecule is an asymmetric top.
 Rotational symmetry number  1.
 Warning -- assumption of classical behavior for rotation
           may cause significant error
 Rotational temperatures (Kelvin)      0.13324     0.02450     0.02378
 Rotational constants (GHZ):           2.77624     0.51055     0.49543
 Zero-point vibrational energy     571418.5 (Joules/Mol)
                                  136.57231 (Kcal/Mol)
 Warning -- explicit consideration of  16 degrees of freedom as
           vibrations may cause significant error
 Vibrational temperatures:     60.09    68.58   105.84   142.08   176.13
          (Kelvin)            274.25   309.14   424.98   453.95   532.23
                              580.19   613.02   728.38   786.07   810.69
                              833.40   980.86  1012.17  1092.70  1157.63
                             1286.35  1298.70  1317.88  1347.91  1363.68
                             1380.19  1412.51  1482.56  1523.86  1564.79
                             1592.01  1632.08  1634.98  1683.20  1724.65
                             1749.35  1769.13  1800.28  1815.20  1880.92
                             1916.93  1919.93  1969.30  1994.20  2000.90
                             2029.22  2104.28  2116.72  2125.94  2167.74
                             2172.28  2227.85  2250.67  2441.40  2490.95
                             4070.03  4254.59  4277.80  4372.85  4413.35
                             4434.77  4447.00  4464.07  4533.86  4552.88
                             4653.06  4693.20  4726.21  5227.13

 Zero-point correction=                           0.217642 (Hartree/Particle)
 Thermal correction to Energy=                    0.229100
 Thermal correction to Enthalpy=                  0.230045
 Thermal correction to Gibbs Free Energy=         0.179162
 Sum of electronic and zero-point Energies=           -497.739899
 Sum of electronic and thermal Energies=              -497.728440
 Sum of electronic and thermal Enthalpies=            -497.727496
 Sum of electronic and thermal Free Energies=         -497.778378

                     E (Thermal)             CV                S
                      KCal/Mol        Cal/Mol-Kelvin    Cal/Mol-Kelvin
 Total                  143.763             42.313            107.091
 Electronic               0.000              0.000              0.000
 Translational            0.889              2.981             41.007
 Rotational               0.889              2.981             30.505
 Vibrational            141.985             36.351             35.579
 Vibration     1          0.594              1.980              5.174
 Vibration     2          0.595              1.978              4.912
 Vibration     3          0.599              1.966              4.056
 Vibration     4          0.604              1.950              3.479
 Vibration     5          0.610              1.930              3.062
 Vibration     6          0.634              1.853              2.222
 Vibration     7          0.645              1.818              2.002
 Vibration     8          0.690              1.682              1.443
 Vibration     9          0.703              1.644              1.333
 Vibration    10          0.742              1.534              1.080
 Vibration    11          0.769              1.463              0.951
 Vibration    12          0.788              1.414              0.872
 Vibration    13          0.861              1.236              0.643
 Vibration    14          0.902              1.148              0.552
 Vibration    15          0.919              1.110              0.517
 Vibration    16          0.936              1.076              0.487

                           ! Non-Optimized Parameters !
 Normal termination of Gaussian 16 at Tue Dec  8 19:18:53 2020.

 ----------------------------------------------------------------------
 # B3LYP/6-311++G(d,p) empiricaldispersion=gd3bj scf=xqc pop=npa geom=c
 heck
 ----------------------------------------------------------------------

 --------------------------------------
 CID_67960415_JID_1093_Energie_neutraal
 --------------------------------------
 Structure from the checkpoint file:  "JID_1093.chk"
 Charge =  0 Multiplicity = 1

 SCF Done:  E(RB3LYP) =  -498.111669946     A.U. after   14 cycles
 Normal termination of Gaussian 16 at Tue Dec  8 19:21:02 2020.

 ----------------------------------------------------------------------
 # B3LYP/6-311++G(d,p) empiricaldispersion=gd3bj scf=xqc pop=npa geom=c
 heck
 ----------------------------------------------------------------------

 ------------------------------------
 CID_67960415_JID_1093_Energie_kation
 ------------------------------------
 Structure from the checkpoint file:  "JID_1093.chk"
 Charge =  1 Multiplicity = 2

 SCF Done:  E(UB3LYP) =  -497.858287946     A.U. after   20 cycles
 Normal termination of Gaussian 16 at Tue Dec  8 19:25:22 2020.
 Gaussian 16:  ES64L-G16RevA.03 25-Dec-2016

 ----------------------------------------------------------------------
 # B3LYP/6-311++G(d,p) empiricaldispersion=gd3bj scf=xqc pop=npa geom=c
 heck
 ----------------------------------------------------------------------

 -----------------------------------
 CID_67960415_JID_1093_Energie_anion
 -----------------------------------
 Structure from the checkpoint file:  "JID_1093.chk"
 Charge = -1 Multiplicity = 2

                         Standard orientation:
 ---------------------------------------------------------------------
 Center     Atomic      Atomic             Coordinates (Angstroms)
 Number     Number       Type             X           Y           Z
 ---------------------------------------------------------------------
      1          6           0       -4.135004   -0.303125    0.756732
      2          6           0       -2.920318   -0.737008    0.423171
      3          6           0       -2.284166   -0.501621   -0.924660
      4          7           0       -0.992416    0.184676   -0.886938
      5          6           0        0.155676   -0.592100   -0.406887
      6          7           0        1.118511    0.436252    0.027768
      7          6           0        0.320139    1.588483    0.298798
      8          6           0       -0.898762    1.434613   -0.228491
      9          6           0        2.060644   -0.001569    1.053005
     10          6           0        3.143842   -0.866289    0.406481
     11          8           0        3.745695   -0.179966   -0.672542
     12          1           0       -4.754987    0.247676    0.051316
     13          1           0       -4.562720   -0.483725    1.739126
     14          1           0       -2.324289   -1.280609    1.155350
     15          1           0       -2.123140   -1.454586   -1.446220
     16          1           0       -2.963590    0.087725   -1.551989
     17          1           0       -0.112903   -1.244526    0.457062
     18          1           0        0.561210   -1.229566   -1.200262
     19          1           0        0.770648    2.461464    0.748935
     20          1           0       -1.709894    2.145656   -0.294495
     21          1           0        2.525410    0.893289    1.479673
     22          1           0        1.553359   -0.549354    1.868587
     23          1           0        3.926525   -1.098557    1.136649
     24          1           0        2.706905   -1.826503    0.079311
     25          1           0        3.006928    0.296540   -1.097404
 ---------------------------------------------------------------------

 SCF Done:  E(UB3LYP) =  -498.095148697     A.U. after   33 cycles
 SCF Done:  E(UB3LYP) =  -498.095148697     a.u. after    1 cycles

 The electronic state is 2-A.
 Alpha  occ. eigenvalues --  -19.02009 -14.23048 -14.22529 -10.13088 -10.11748
 Alpha  occ. eigenvalues --  -10.10625 -10.10362 -10.09004 -10.08817 -10.07750
 Alpha  occ. eigenvalues --  -10.06914  -0.92706  -0.88800  -0.80140  -0.69417
 Alpha  occ. eigenvalues --   -0.66076  -0.63367  -0.59462  -0.53953  -0.49598
 Alpha  occ. eigenvalues --   -0.48391  -0.46671  -0.42291  -0.40656  -0.39095
 Alpha  occ. eigenvalues --   -0.37514  -0.36220  -0.34879  -0.33622  -0.32637
 Alpha  occ. eigenvalues --   -0.31982  -0.30920  -0.29963  -0.28248  -0.26505
 Alpha  occ. eigenvalues --   -0.26402  -0.24130  -0.22166  -0.18427  -0.17549
 Alpha  occ. eigenvalues --   -0.16606  -0.07768   0.04659
 Alpha virt. eigenvalues --    0.06727   0.07282   0.07852   0.08391   0.08661
 Alpha virt. eigenvalues --    0.09478   0.09832   0.10627   0.10904   0.11751
 Alpha virt. eigenvalues --    0.12149   0.12501   0.12923   0.14058   0.14316

  Beta  occ. eigenvalues --  -19.02005 -14.23042 -14.22526 -10.13058 -10.11725
  Beta  occ. eigenvalues --  -10.10601 -10.10340 -10.08986 -10.08811 -10.07736
  Beta  occ. eigenvalues --  -10.06883  -0.92694  -0.88783  -0.80120  -0.69384
  Beta  occ. eigenvalues --   -0.66045  -0.63322  -0.59414  -0.53901  -0.49539
  Beta  occ. eigenvalues --   -0.48353  -0.46594  -0.42241  -0.40628  -0.39059
  Beta  occ. eigenvalues --   -0.37466  -0.36176  -0.34843  -0.33580  -0.32594
  Beta  occ. eigenvalues --   -0.31936  -0.30880  -0.29932  -0.28214  -0.26475
  Beta  occ. eigenvalues --   -0.26351  -0.24110  -0.22132  -0.18400  -0.17523
  Beta  occ. eigenvalues --   -0.16572  -0.07735
  Beta virt. eigenvalues --    0.06984   0.07701   0.08108   0.08458   0.08859
  Beta virt. eigenvalues --    0.09203   0.09867   0.10351   0.10902   0.11521
  Beta virt. eigenvalues --    0.12114   0.12689   0.12726   0.13388   0.14291

 Mulliken charges and spin densities:
               1          2
     1  C    0.824025  -1.320505
     2  C   -1.411867   1.790709
     3  C    1.925149  -2.459846
     4  N   -0.037238   0.202527
     5  C    0.273376  -0.827142
     6  N   -0.135835   0.134938
     7  C   -0.094548   0.046118
     8  C    0.371824  -0.684983
     9  C   -0.052805  -0.092372
    10  C    0.714425  -1.089467
    11  O   -0.286227   0.034062
    12  H   -0.462324   0.582145
    13  H   -0.095815   0.212164
    14  H   -0.720440   0.861522
    15  H   -0.420190   0.569900
    16  H   -0.255186   0.440890
    17  H   -0.029870   0.140562
    18  H    0.138042   0.066935
    19  H   -0.292874   0.435280
    20  H   -0.307253   0.451180
    21  H   -0.072277   0.232487
    22  H   -0.228001   0.359792
    23  H   -0.297009   0.466479
    24  H   -0.249136   0.398165
    25  H    0.202054   0.048459
 Sum of Mulliken charges =  -1.00000   1.00000

 Dipole moment (field-independent basis, Debye):
    X=              1.8189    Y=              1.9839    Z=             -0.8376  Tot=              2.8188
 Quadrupole moment (field-independent basis, Debye-Ang):
   XX=           -145.7403   YY=           -106.2467   ZZ=           -104.2938
   XY=              1.8684   XZ=             -1.1011   YZ=              1.6048

 Summary of Natural Population Analysis:

                                       Natural Population
                Natural  -----------------------------------------------
    Atom  No    Charge         Core      Valence    Rydberg      Total
 -----------------------------------------------------------------------
      C    1   -0.18344      0.99956     2.17690    0.00698     3.18344
      C    2   -0.09445      0.99956     2.08470    0.01019     3.09445
      C    3   -0.10065      0.99959     2.08759    0.01347     3.10065
      N    4   -0.26601      0.99971     2.75197    0.01433     3.76601
      C    5    0.02328      0.99962     1.96280    0.01430     2.97672
      N    6   -0.28465      0.99970     2.77084    0.01411     3.78465
      C    7   -0.03328      0.99951     2.02129    0.01247     3.03328
      C    8   -0.01812      0.99951     2.00615    0.01246     3.01812
      C    9   -0.09603      0.99962     2.08413    0.01228     3.09603
      C   10   -0.01387      0.99962     2.00131    0.01294     3.01387
      O   11   -0.37374      0.99990     3.36700    0.00684     4.37374
      H   12    0.08978      0.00000     0.40835    0.00187     0.41022
      H   13    0.09452      0.00000     0.40409    0.00139     0.40548
      H   14    0.09599      0.00000     0.40189    0.00212     0.40401
      H   15    0.10336      0.00000     0.39482    0.00182     0.39664
      H   16    0.09948      0.00000     0.39881    0.00171     0.40052
      H   17    0.07220      0.00000     0.42478    0.00302     0.42780
      H   18    0.09320      0.00000     0.40425    0.00255     0.40680
      H   19    0.10238      0.00000     0.39649    0.00113     0.39762
      H   20    0.10554      0.00000     0.39320    0.00127     0.39446
      H   21    0.09742      0.00000     0.40097    0.00161     0.40258
      H   22    0.09103      0.00000     0.40639    0.00258     0.40897
      H   23    0.08681      0.00000     0.41179    0.00139     0.41319
      H   24    0.07601      0.00000     0.42219    0.00181     0.42399
      H   25    0.23325      0.00000     0.26342    0.00333     0.26675
 =======================================================================
   * Total *   -0.00000     10.99589    30.84615    0.15796    42.00000

 Normal termination of Gaussian 16 at Tue Dec  8 19:32:35 2020.
