 Gaussian 16, Revision A.03,

 -----------------------------------------------------------
 # opt freq B3LYP/6-31G(d) empiricaldispersion=gd3bj scf=xqc
 -----------------------------------------------------------

 -------------------------------
 CID_143696367_JID_3975_neutraal
 -------------------------------
 Symbolic Z-matrix:
 Charge =  0 Multiplicity = 1

 SCF Done:  E(RB3LYP) =  -592.650897751     A.U. after   14 cycles
 SCF Done:  E(RB3LYP) =  -592.657562176     A.U. after   12 cycles
 SCF Done:  E(RB3LYP) =  -592.658651965     A.U. after   14 cycles
 SCF Done:  E(RB3LYP) =  -592.654368860     A.U. after   14 cycles
 SCF Done:  E(RB3LYP) =  -592.659681027     A.U. after   13 cycles
 SCF Done:  E(RB3LYP) =  -592.660651533     A.U. after   14 cycles
 SCF Done:  E(RB3LYP) =  -592.659799110     A.U. after   14 cycles
 SCF Done:  E(RB3LYP) =  -592.661680058     A.U. after   13 cycles
 SCF Done:  E(RB3LYP) =  -592.661697465     A.U. after   14 cycles
 SCF Done:  E(RB3LYP) =  -592.661936485     A.U. after   14 cycles
 SCF Done:  E(RB3LYP) =  -592.663128523     A.U. after   10 cycles
 SCF Done:  E(RB3LYP) =  -592.663129503     A.U. after    8 cycles
 SCF Done:  E(RB3LYP) =  -592.663133019     A.U. after    9 cycles
 SCF Done:  E(RB3LYP) =  -592.663134932     A.U. after    9 cycles
 SCF Done:  E(RB3LYP) =  -592.663134971     A.U. after    8 cycles
 Optimization completed.
    -- Stationary point found.
 Normal termination of Gaussian 16 at Mon Dec 14 19:04:18 2020.

 --------------------------------------------------------------------
 #N Geom=AllCheck Guess=TCheck SCRF=Check GenChk RB3LYP/6-31G(d) Freq
 --------------------------------------------------------------------

 Structure from the checkpoint file:  "JID_3975.chk"
 -------------------------------
 CID_143696367_JID_3975_neutraal
 -------------------------------
 Charge =  0 Multiplicity = 1

 SCF Done:  E(RB3LYP) =  -592.663134971     A.U. after    1 cycles

  Exact polarizability: 125.311   0.074 102.458  -4.314  -3.772 100.085
 Approx polarizability: 162.578   6.104 157.235  -9.311  -8.817 149.907

                      1                      2                      3
                      A                      A                      A
 Frequencies --      9.3448                15.9289                39.6114
 Red. masses --      4.2507                 4.0012                 3.6092
 Frc consts  --      0.0002                 0.0006                 0.0033
 IR Inten    --      0.8732                 0.8620                 0.3644

                      4                      5                      6
                      A                      A                      A
 Frequencies --     45.5851                59.2905                73.3013
 Red. masses --      3.9978                 3.3739                 4.7323
 Frc consts  --      0.0049                 0.0070                 0.0150
 IR Inten    --      0.2512                 0.0049                 1.0880

                      7                      8                      9
                      A                      A                      A
 Frequencies --    103.5893               109.6170               341.2093
 Red. masses --      1.7625                 2.2500                 1.6882
 Frc consts  --      0.0111                 0.0159                 0.1158
 IR Inten    --      0.0744                 0.6230                 0.0055

                     10                     11                     12
                      A                      A                      A
 Frequencies --    342.2470               431.5443               432.7404
 Red. masses --      1.6923                 2.3028                 2.3134
 Frc consts  --      0.1168                 0.2527                 0.2552
 IR Inten    --      0.0455                 0.1498                 0.6435

                     13                     14                     15
                      A                      A                      A
 Frequencies --    502.4719               590.4803               594.0936
 Red. masses --      2.4946                 3.6668                 3.6417
 Frc consts  --      0.3711                 0.7533                 0.7573
 IR Inten    --     30.4111                 0.0110                 0.0167

                     16                     17                     18
                      A                      A                      A
 Frequencies --    607.9129               736.1522               769.1160
 Red. masses --     11.6748                 6.2279                 4.0772
 Frc consts  --      2.5420                 1.9885                 1.4210
 IR Inten    --      0.0296                 9.9351                56.4395

                     19                     20                     21
                      A                      A                      A
 Frequencies --    815.5891               817.8565               836.9960
 Red. masses --      1.1895                 4.6188                 1.2764
 Frc consts  --      0.4662                 1.8203                 0.5269
 IR Inten    --      0.1229                 0.0559                13.5599

                     22                     23                     24
                      A                      A                      A
 Frequencies --    838.9032               840.1858               886.0579
 Red. masses --      1.1979                 1.2658                 8.9535
 Frc consts  --      0.4967                 0.5265                 4.1416
 IR Inten    --      0.3283                12.0342                 3.2182

                     25                     26                     27
                      A                      A                      A
 Frequencies --    904.3892               907.3213               951.9853
 Red. masses --      3.5499                 3.5517                 1.4861
 Frc consts  --      1.7107                 1.7227                 0.7935
 IR Inten    --      2.2166                 3.3377                 6.1543

                     28                     29                     30
                      A                      A                      A
 Frequencies --    953.8252               971.5173               975.1189
 Red. masses --      4.8206                 3.5025                 3.1663
 Frc consts  --      2.5840                 1.9477                 1.7739
 IR Inten    --     27.0098                26.4216                 0.4831

                     31                     32                     33
                      A                      A                      A
 Frequencies --    985.0960              1000.4478              1039.6537
 Red. masses --      3.8770                 5.2182                 1.5489
 Frc consts  --      2.2167                 3.0772                 0.9864
 IR Inten    --     14.5856                17.4824                 0.0052

                     34                     35                     36
                      A                      A                      A
 Frequencies --   1046.0811              1049.6010              1086.8326
 Red. masses --      2.9787                 2.9057                 3.1853
 Frc consts  --      1.9205                 1.8860                 2.2168
 IR Inten    --      0.0104                 0.0083                35.3217

                     37                     38                     39
                      A                      A                      A
 Frequencies --   1088.7213              1133.3697              1142.8226
 Red. masses --      3.2003                 1.6238                 5.2021
 Frc consts  --      2.2350                 1.2289                 4.0030
 IR Inten    --     32.3029                 0.5991               184.2644

                     40                     41                     42
                      A                      A                      A
 Frequencies --   1212.3300              1217.9209              1219.5028
 Red. masses --      1.0447                 2.0865                 2.0587
 Frc consts  --      0.9046                 1.8235                 1.8039
 IR Inten    --      0.1925                 0.0832                 0.2011

                     43                     44                     45
                      A                      A                      A
 Frequencies --   1226.3607              1263.3400              1279.2463
 Red. masses --      1.1196                 1.0890                 1.0963
 Frc consts  --      0.9920                 1.0241                 1.0570
 IR Inten    --      2.9601                 1.1663                 0.0131

                     46                     47                     48
                      A                      A                      A
 Frequencies --   1325.0702              1341.3112              1342.1237
 Red. masses --      1.1649                 1.2794                 1.2140
 Frc consts  --      1.2051                 1.3562                 1.2884
 IR Inten    --      0.0163                 2.8750                 0.2690

                     49                     50                     51
                      A                      A                      A
 Frequencies --   1342.4317              1347.3710              1350.4665
 Red. masses --      1.2966                 1.2219                 1.2199
 Frc consts  --      1.3767                 1.3069                 1.3108
 IR Inten    --      4.6544                 0.1054                 0.0575

                     52                     53                     54
                      A                      A                      A
 Frequencies --   1361.3619              1362.4971              1367.8604
 Red. masses --      1.3911                 1.3989                 1.4619
 Frc consts  --      1.5190                 1.5301                 1.6116
 IR Inten    --      0.0872                 0.6368                 8.8530

                     55                     56                     57
                      A                      A                      A
 Frequencies --   1370.6912              1380.7703              1392.1581
 Red. masses --      1.4249                 1.3189                 1.4817
 Frc consts  --      1.5773                 1.4815                 1.6920
 IR Inten    --     15.0544                 6.2055                 6.4461

                     58                     59                     60
                      A                      A                      A
 Frequencies --   1402.5319              1503.9594              1508.1250
 Red. masses --      1.3401                 1.0817                 1.0816
 Frc consts  --      1.5531                 1.4415                 1.4494
 IR Inten    --      8.1284                 0.0325                 0.3268

                     61                     62                     63
                      A                      A                      A
 Frequencies --   1515.3770              1518.7508              1520.0139
 Red. masses --      1.0826                 1.0831                 1.0951
 Frc consts  --      1.4647                 1.4719                 1.4908
 IR Inten    --      4.5062                 2.7154                 3.8018

                     64                     65                     66
                      A                      A                      A
 Frequencies --   1529.2927              1530.9584              1552.7470
 Red. masses --      1.0966                 1.0925                 1.0959
 Frc consts  --      1.5110                 1.5087                 1.5567
 IR Inten    --     10.7717                 0.7937                 1.6874

                     67                     68                     69
                      A                      A                      A
 Frequencies --   1718.2225              3038.6816              3044.2741
 Red. masses --      6.9373                 1.0588                 1.0628
 Frc consts  --     12.0670                 5.7603                 5.8033
 IR Inten    --    164.3868                19.8771                36.3409

                     70                     71                     72
                      A                      A                      A
 Frequencies --   3047.3714              3047.5456              3053.8608
 Red. masses --      1.0648                 1.0601                 1.0604
 Frc consts  --      5.8261                 5.8011                 5.8266
 IR Inten    --     62.3962                90.3697               127.6813

                     73                     74                     75
                      A                      A                      A
 Frequencies --   3060.7467              3069.7405              3076.3191
 Red. masses --      1.0640                 1.0590                 1.1073
 Frc consts  --      5.8726                 5.8794                 6.1740
 IR Inten    --      7.9697                29.7489                 0.1082

                     76                     77                     78
                      A                      A                      A
 Frequencies --   3088.9337              3092.7152              3099.6162
 Red. masses --      1.0589                 1.1021                 1.1081
 Frc consts  --      5.9526                 6.2107                 6.2726
 IR Inten    --     40.2246                 2.2068                61.5984

                     79                     80                     81
                      A                      A                      A
 Frequencies --   3102.4325              3106.5015              3112.1210
 Red. masses --      1.1082                 1.1000                 1.1065
 Frc consts  --      6.2843                 6.2546                 6.3142
 IR Inten    --     10.9885                 3.2842                65.3233

                     82                     83                     84
                      A                      A                      A
 Frequencies --   3122.7305              3140.1997              3244.0557
 Red. masses --      1.1049                 1.1121                 1.0973
 Frc consts  --      6.3480                 6.4612                 6.8036
 IR Inten    --     80.7189                36.5927                 5.9574

 - Thermochemistry -
 -------------------
 Temperature   298.150 Kelvin.  Pressure   1.00000 Atm.
 Atom     1 has atomic number  6 and mass  12.00000

 Molecular mass:   183.13716 amu.
 Principal axes and moments of inertia in atomic units:
                           1         2         3
     Eigenvalues --  1002.566364699.565134859.03859
           X            0.99995  -0.00975  -0.00035
           Y            0.00972   0.99884  -0.04710
           Z            0.00081   0.04709   0.99889
 This molecule is an asymmetric top.
 Rotational symmetry number  1.
 Warning -- assumption of classical behavior for rotation
           may cause significant error
 Rotational temperatures (Kelvin)      0.08639     0.01843     0.01783
 Rotational constants (GHZ):           1.80012     0.38402     0.37142
 Zero-point vibrational energy     703567.2 (Joules/Mol)
                                  168.15659 (Kcal/Mol)
 Warning -- explicit consideration of  16 degrees of freedom as
           vibrations may cause significant error
 Vibrational temperatures:     13.45    22.92    56.99    65.59    85.31
          (Kelvin)            105.46   149.04   157.71   490.92   492.42
                              620.90   622.62   722.95   849.57   854.77
                              874.65  1059.16  1106.59  1173.45  1176.71
                             1204.25  1206.99  1208.84  1274.84  1301.21
                             1305.43  1369.69  1372.34  1397.80  1402.98
                             1417.33  1439.42  1495.83  1505.08  1510.14
                             1563.71  1566.43  1630.67  1644.27  1744.27
                             1752.32  1754.59  1764.46  1817.66  1840.55
                             1906.48  1929.85  1931.02  1931.46  1938.57
                             1943.02  1958.70  1960.33  1968.05  1972.12
                             1986.62  2003.01  2017.93  2163.86  2169.86
                             2180.29  2185.14  2186.96  2200.31  2202.71
                             2234.06  2472.14  4371.99  4380.03  4384.49
                             4384.74  4393.82  4403.73  4416.67  4426.14
                             4444.29  4449.73  4459.66  4463.71  4469.56
                             4477.65  4492.91  4518.05  4667.47

 Zero-point correction=                           0.267975 (Hartree/Particle)
 Thermal correction to Energy=                    0.280766
 Thermal correction to Enthalpy=                  0.281710
 Thermal correction to Gibbs Free Energy=         0.223083
 Sum of electronic and zero-point Energies=           -592.395160
 Sum of electronic and thermal Energies=              -592.382369
 Sum of electronic and thermal Enthalpies=            -592.381425
 Sum of electronic and thermal Free Energies=         -592.440052

                     E (Thermal)             CV                S
                      KCal/Mol        Cal/Mol-Kelvin    Cal/Mol-Kelvin
 Total                  176.183             45.830            123.390
 Electronic               0.000              0.000              0.000
 Translational            0.889              2.981             41.522
 Rotational               0.889              2.981             31.504
 Vibrational            174.406             39.868             50.364
 Vibration     1          0.593              1.987              8.146
 Vibration     2          0.593              1.986              7.086
 Vibration     3          0.594              1.981              5.278
 Vibration     4          0.595              1.979              5.000
 Vibration     5          0.597              1.974              4.481
 Vibration     6          0.599              1.967              4.063
 Vibration     7          0.605              1.946              3.386
 Vibration     8          0.606              1.942              3.276
 Vibration     9          0.721              1.593              1.206
 Vibration    10          0.721              1.591              1.202
 Vibration    11          0.793              1.402              0.854
 Vibration    12          0.794              1.399              0.850
 Vibration    13          0.858              1.245              0.652
 Vibration    14          0.948              1.052              0.466
 Vibration    15          0.952              1.044              0.460
 Vibration    16          0.967              1.015              0.436

                           ! Non-Optimized Parameters !
 Normal termination of Gaussian 16 at Mon Dec 14 19:11:52 2020.

 ----------------------------------------------------------------------
 # B3LYP/6-311++G(d,p) empiricaldispersion=gd3bj scf=xqc pop=npa geom=c
 heck
 ----------------------------------------------------------------------

 ---------------------------------------
 CID_143696367_JID_3975_Energie_neutraal
 ---------------------------------------
 Structure from the checkpoint file:  "JID_3975.chk"
 Charge =  0 Multiplicity = 1

 SCF Done:  E(RB3LYP) =  -592.825105049     A.U. after   13 cycles
 Normal termination of Gaussian 16 at Mon Dec 14 19:15:02 2020.

 ----------------------------------------------------------------------
 # B3LYP/6-311++G(d,p) empiricaldispersion=gd3bj scf=xqc pop=npa geom=c
 heck
 ----------------------------------------------------------------------

 -------------------------------------
 CID_143696367_JID_3975_Energie_kation
 -------------------------------------
 Structure from the checkpoint file:  "JID_3975.chk"
 Charge =  1 Multiplicity = 2

 SCF Done:  E(UB3LYP) =  -592.568677382     A.U. after   18 cycles
 Normal termination of Gaussian 16 at Mon Dec 14 19:20:56 2020.
 Gaussian 16:  ES64L-G16RevA.03 25-Dec-2016

 ----------------------------------------------------------------------
 # B3LYP/6-311++G(d,p) empiricaldispersion=gd3bj scf=xqc pop=npa geom=c
 heck
 ----------------------------------------------------------------------

 ------------------------------------
 CID_143696367_JID_3975_Energie_anion
 ------------------------------------
 Structure from the checkpoint file:  "JID_3975.chk"
 Charge = -1 Multiplicity = 2

                         Standard orientation:
 ---------------------------------------------------------------------
 Center     Atomic      Atomic             Coordinates (Angstroms)
 Number     Number       Type             X           Y           Z
 ---------------------------------------------------------------------
      1          6           0       -2.774499    1.139820   -0.338748
      2          6           0       -3.938422    0.570107    0.512899
      3          8           0       -3.762050   -0.871787    0.420508
      4          6           0       -2.642614   -1.050480   -0.322515
      5          7           0       -2.016067   -0.046804   -0.785303
      6          6           0        3.335279   -0.634717    0.041102
      7          6           0        3.136279    0.820508    0.576516
      8          7           0        1.722074    1.213420    0.468231
      9          6           0        1.311393    1.107163   -0.943691
     10          6           0        1.478631   -0.360586   -1.446657
     11          7           0        2.044775   -1.203788   -0.378162
     12          6           0        1.127519   -1.185653    0.772406
     13          6           0        0.912254    0.279531    1.268287
     14          1           0       -3.125666    1.697059   -1.213827
     15          1           0       -2.117180    1.802397    0.233454
     16          1           0       -3.885198    0.845921    1.569526
     17          1           0       -4.931263    0.811519    0.125862
     18          1           0       -2.361087   -2.088344   -0.468271
     19          1           0        4.009781   -0.655160   -0.822940
     20          1           0        3.763306   -1.289747    0.809353
     21          1           0        3.431458    0.904339    1.629271
     22          1           0        3.733750    1.542836    0.007889
     23          1           0        0.267132    1.423128   -1.022022
     24          1           0        1.923870    1.807786   -1.523743
     25          1           0        2.147616   -0.418636   -2.313552
     26          1           0        0.508929   -0.778193   -1.733338
     27          1           0        1.557772   -1.818080    1.558287
     28          1           0        0.180985   -1.637001    0.458149
     29          1           0        1.199305    0.396148    2.320360
     30          1           0       -0.137506    0.574379    1.170517
 ---------------------------------------------------------------------

 SCF Done:  E(UB3LYP) =  -592.810144661     A.U. after   33 cycles
 SCF Done:  E(UB3LYP) =  -592.810144661     a.u. after    1 cycles

 The electronic state is 2-A.
 Alpha  occ. eigenvalues --  -19.06637 -14.20604 -14.20527 -14.20413 -10.16421
 Alpha  occ. eigenvalues --  -10.12673 -10.10315 -10.09358 -10.09264 -10.08771
 Alpha  occ. eigenvalues --  -10.08557 -10.08529 -10.08478  -0.99556  -0.86334
 Alpha  occ. eigenvalues --   -0.81150  -0.78299  -0.66638  -0.65833  -0.65481
 Alpha  occ. eigenvalues --   -0.54123  -0.53914  -0.53622  -0.53201  -0.49744
 Alpha  occ. eigenvalues --   -0.41803  -0.41746  -0.40556  -0.40291  -0.39995
 Alpha  occ. eigenvalues --   -0.38674  -0.34971  -0.31532  -0.31416  -0.31177
 Alpha  occ. eigenvalues --   -0.31142  -0.30603  -0.29718  -0.29670  -0.28378
 Alpha  occ. eigenvalues --   -0.27935  -0.27633  -0.26440  -0.22919  -0.22399
 Alpha  occ. eigenvalues --   -0.22191  -0.19101  -0.16606  -0.15902  -0.09211
 Alpha  occ. eigenvalues --    0.04521
 Alpha virt. eigenvalues --    0.06207   0.07246   0.07928   0.08258   0.08744
 Alpha virt. eigenvalues --    0.09158   0.09772   0.10180   0.10590   0.11104
 Alpha virt. eigenvalues --    0.11386   0.12189   0.12789   0.13585   0.13809

  Beta  occ. eigenvalues --  -19.06636 -14.20605 -14.20525 -14.20412 -10.16409
  Beta  occ. eigenvalues --  -10.12618 -10.10281 -10.09342 -10.09248 -10.08756
  Beta  occ. eigenvalues --  -10.08537 -10.08520 -10.08468  -0.99545  -0.86325
  Beta  occ. eigenvalues --   -0.81136  -0.78288  -0.66570  -0.65808  -0.65459
  Beta  occ. eigenvalues --   -0.54050  -0.53850  -0.53583  -0.53181  -0.49685
  Beta  occ. eigenvalues --   -0.41761  -0.41703  -0.40532  -0.40273  -0.39971
  Beta  occ. eigenvalues --   -0.38635  -0.34890  -0.31511  -0.31393  -0.31159
  Beta  occ. eigenvalues --   -0.31105  -0.30572  -0.29703  -0.29653  -0.28335
  Beta  occ. eigenvalues --   -0.27900  -0.27598  -0.26390  -0.22901  -0.22382
  Beta  occ. eigenvalues --   -0.22177  -0.19089  -0.16580  -0.15883  -0.09175
  Beta virt. eigenvalues --    0.06543   0.07511   0.07837   0.08319   0.08880
  Beta virt. eigenvalues --    0.09213   0.09492   0.10010   0.10487   0.10979
  Beta virt. eigenvalues --    0.11519   0.11667   0.12383   0.12922   0.13656

 Mulliken charges and spin densities:
               1          2
     1  C   -0.214884   0.074637
     2  C    2.103026  -2.607912
     3  O   -0.168192   0.090961
     4  C   -0.018617  -0.022263
     5  N   -0.226009   0.100134
     6  C    0.068423  -0.367657
     7  C    0.071213  -0.254815
     8  N    0.005689   0.067599
     9  C   -0.313952   0.067633
    10  C    0.045208  -0.539461
    11  N    0.030671   0.052563
    12  C   -0.588591   0.275166
    13  C    0.539624  -0.873175
    14  H   -0.535410   0.714267
    15  H    0.200967  -0.042916
    16  H   -0.631316   0.822660
    17  H   -0.701167   0.897681
    18  H   -0.241580   0.449623
    19  H   -0.024543   0.155480
    20  H   -0.041804   0.182608
    21  H    0.025281   0.116826
    22  H   -0.119345   0.258313
    23  H   -0.278323   0.410132
    24  H   -0.007720   0.158557
    25  H    0.009390   0.129461
    26  H    0.118512   0.050236
    27  H   -0.153764   0.303765
    28  H    0.053664   0.083630
    29  H   -0.283705   0.454098
    30  H    0.277254  -0.207829
 Sum of Mulliken charges =  -1.00000   1.00000

 Dipole moment (field-independent basis, Debye):
    X=              6.0005    Y=             -2.4569    Z=             -1.3218  Tot=              6.6173
 Quadrupole moment (field-independent basis, Debye-Ang):
   XX=           -171.3914   YY=           -116.8587   ZZ=           -116.5992
   XY=             12.0896   XZ=             -0.0773   YZ=             -0.1255

 Summary of Natural Population Analysis:

                                       Natural Population
                Natural  -----------------------------------------------
    Atom  No    Charge         Core      Valence    Rydberg      Total
 -----------------------------------------------------------------------
      C    1   -0.11857      0.99964     2.10776    0.01117     3.11857
      C    2   -0.02201      0.99961     2.01173    0.01067     3.02201
      O    3   -0.27575      0.99989     3.26700    0.00886     4.27575
      C    4    0.21025      0.99961     1.77158    0.01856     2.78975
      N    5   -0.26612      0.99971     2.75382    0.01259     3.76612
      C    6   -0.10140      0.99962     2.09035    0.01143     3.10140
      C    7   -0.10111      0.99962     2.09048    0.01101     3.10111
      N    8   -0.26786      0.99976     2.75481    0.01329     3.76786
      C    9   -0.10197      0.99962     2.09165    0.01070     3.10197
      C   10   -0.10205      0.99962     2.09234    0.01009     3.10205
      N   11   -0.26931      0.99976     2.75634    0.01321     3.76931
      C   12   -0.10060      0.99962     2.08927    0.01171     3.10060
      C   13   -0.10172      0.99962     2.09015    0.01195     3.10172
      H   14    0.10095      0.00000     0.39699    0.00206     0.39905
      H   15    0.09939      0.00000     0.39894    0.00166     0.40061
      H   16    0.09275      0.00000     0.40445    0.00279     0.40725
      H   17    0.09561      0.00000     0.39934    0.00506     0.40439
      H   18    0.08710      0.00000     0.41160    0.00130     0.41290
      H   19    0.09249      0.00000     0.40630    0.00121     0.40751
      H   20    0.09354      0.00000     0.40524    0.00122     0.40646
      H   21    0.09383      0.00000     0.40490    0.00126     0.40617
      H   22    0.09291      0.00000     0.40587    0.00122     0.40709
      H   23    0.10290      0.00000     0.39517    0.00193     0.39710
      H   24    0.09042      0.00000     0.40835    0.00123     0.40958
      H   25    0.09020      0.00000     0.40862    0.00118     0.40980
      H   26    0.10418      0.00000     0.39413    0.00169     0.39582
      H   27    0.09228      0.00000     0.40644    0.00128     0.40772
      H   28    0.09683      0.00000     0.40149    0.00167     0.40317
      H   29    0.09340      0.00000     0.40524    0.00137     0.40660
      H   30    0.09945      0.00000     0.39860    0.00195     0.40055
 =======================================================================
   * Total *    0.00000     12.99570    36.81897    0.18533    50.00000

 Normal termination of Gaussian 16 at Mon Dec 14 19:31:24 2020.
