 Gaussian 16, Revision A.03,

 -----------------------------------------------------------
 # opt freq B3LYP/6-31G(d) empiricaldispersion=gd3bj scf=xqc
 -----------------------------------------------------------

 -------------------------------
 CID_134061107_JID_8082_neutraal
 -------------------------------
 Symbolic Z-matrix:
 Charge =  0 Multiplicity = 1

 SCF Done:  E(RB3LYP) =  -805.554150034     A.U. after   15 cycles
 SCF Done:  E(RB3LYP) =  -805.556886840     A.U. after   13 cycles
 SCF Done:  E(RB3LYP) =  -805.556982992     A.U. after   13 cycles
 SCF Done:  E(RB3LYP) =  -805.561982813     A.U. after   13 cycles
 SCF Done:  E(RB3LYP) =  -805.563325441     A.U. after   13 cycles
 SCF Done:  E(RB3LYP) =  -805.563290458     A.U. after   12 cycles
 SCF Done:  E(RB3LYP) =  -805.563531026     A.U. after   12 cycles
 SCF Done:  E(RB3LYP) =  -805.564064525     A.U. after   12 cycles
 SCF Done:  E(RB3LYP) =  -805.564096292     A.U. after   10 cycles
 SCF Done:  E(RB3LYP) =  -805.564110233     A.U. after   10 cycles
 SCF Done:  E(RB3LYP) =  -805.564117062     A.U. after    9 cycles
 SCF Done:  E(RB3LYP) =  -805.564121533     A.U. after   10 cycles
 SCF Done:  E(RB3LYP) =  -805.564122839     A.U. after    8 cycles
 SCF Done:  E(RB3LYP) =  -805.564123330     A.U. after    8 cycles
 Optimization completed.
    -- Stationary point found.
 Normal termination of Gaussian 16 at Fri Dec 11 18:49:13 2020.

 --------------------------------------------------------------------
 #N Geom=AllCheck Guess=TCheck SCRF=Check GenChk RB3LYP/6-31G(d) Freq
 --------------------------------------------------------------------

 Structure from the checkpoint file:  "JID_8082.chk"
 -------------------------------
 CID_134061107_JID_8082_neutraal
 -------------------------------
 Charge =  0 Multiplicity = 1

 SCF Done:  E(RB3LYP) =  -805.564123330     A.U. after    1 cycles

  Exact polarizability: 179.368 -11.236 150.628   0.652 -13.811 141.466
 Approx polarizability: 258.851 -17.909 227.622  -2.464 -24.369 223.433

                      1                      2                      3
                      A                      A                      A
 Frequencies --     34.8200                44.4836                60.9432
 Red. masses --      4.2317                 3.6879                 2.9440
 Frc consts  --      0.0030                 0.0043                 0.0064
 IR Inten    --      0.8723                 0.2516                 0.3185

                      4                      5                      6
                      A                      A                      A
 Frequencies --     64.2193                76.6423               105.3747
 Red. masses --      3.9668                 3.6587                 3.1581
 Frc consts  --      0.0096                 0.0127                 0.0207
 IR Inten    --      0.2982                 1.1789                 2.6270

                      7                      8                      9
                      A                      A                      A
 Frequencies --    107.7055               148.5218               156.5655
 Red. masses --      3.2440                 4.1975                 4.0884
 Frc consts  --      0.0222                 0.0546                 0.0590
 IR Inten    --      1.5247                 3.1109                 1.6388

                     10                     11                     12
                      A                      A                      A
 Frequencies --    171.4794               212.4981               236.2232
 Red. masses --      1.3525                 2.4302                 1.1903
 Frc consts  --      0.0234                 0.0647                 0.0391
 IR Inten    --      0.2243                 1.1307                 0.1432

                     13                     14                     15
                      A                      A                      A
 Frequencies --    246.6642               270.0162               273.5029
 Red. masses --      2.7222                 2.7335                 2.5566
 Frc consts  --      0.0976                 0.1174                 0.1127
 IR Inten    --      1.2709                 6.2088                 2.5405

                     16                     17                     18
                      A                      A                      A
 Frequencies --    301.7866               317.3015               382.4389
 Red. masses --      3.8658                 2.7120                 3.4829
 Frc consts  --      0.2074                 0.1609                 0.3001
 IR Inten    --      3.0985                 0.6263                 0.1956

                     19                     20                     21
                      A                      A                      A
 Frequencies --    402.8828               427.7480               472.6685
 Red. masses --      2.9070                 4.3480                 5.6782
 Frc consts  --      0.2780                 0.4687                 0.7474
 IR Inten    --      9.3148                 7.5010                 6.2167

                     22                     23                     24
                      A                      A                      A
 Frequencies --    518.4425               522.4027               549.2048
 Red. masses --      4.2239                 2.4660                 2.7061
 Frc consts  --      0.6689                 0.3965                 0.4809
 IR Inten    --      3.5683                 0.5730                 3.8368

                     25                     26                     27
                      A                      A                      A
 Frequencies --    586.9973               620.6444               631.3777
 Red. masses --      3.1475                 6.0479                 2.8174
 Frc consts  --      0.6390                 1.3726                 0.6617
 IR Inten    --      1.3433                 3.2354                 5.2503

                     28                     29                     30
                      A                      A                      A
 Frequencies --    668.7490               714.9787               757.4257
 Red. masses --      4.1492                 3.4229                 8.5498
 Frc consts  --      1.0933                 1.0309                 2.8899
 IR Inten    --      5.1118                 4.6927                 7.9183

                     31                     32                     33
                      A                      A                      A
 Frequencies --    787.9063               793.8525               815.5106
 Red. masses --      1.4431                 2.1230                 1.8563
 Frc consts  --      0.5278                 0.7883                 0.7274
 IR Inten    --      2.9300                33.9054                10.4231

                     34                     35                     36
                      A                      A                      A
 Frequencies --    835.9372               847.9423               867.5980
 Red. masses --      2.1028                 2.6830                 2.0177
 Frc consts  --      0.8658                 1.1366                 0.8948
 IR Inten    --      6.9512                 1.4394                 1.0789

                     37                     38                     39
                      A                      A                      A
 Frequencies --    890.1760               912.0867               916.2223
 Red. masses --      2.9393                 3.0886                 2.2923
 Frc consts  --      1.3723                 1.5139                 1.1338
 IR Inten    --     17.4039                 6.1709                 0.0960

                     40                     41                     42
                      A                      A                      A
 Frequencies --    937.2570               964.6398               968.5285
 Red. masses --      1.8573                 1.4035                 1.4573
 Frc consts  --      0.9613                 0.7695                 0.8054
 IR Inten    --      3.6312                 0.9315                 3.6753

                     43                     44                     45
                      A                      A                      A
 Frequencies --    980.3588              1013.1187              1039.9854
 Red. masses --      1.3236                 2.9023                 1.5902
 Frc consts  --      0.7495                 1.7551                 1.0133
 IR Inten    --      3.5783                 4.3753                 2.6225

                     46                     47                     48
                      A                      A                      A
 Frequencies --   1056.9555              1060.5488              1092.6418
 Red. masses --      4.5866                 2.0248                 2.6983
 Frc consts  --      3.0190                 1.3418                 1.8980
 IR Inten    --     42.3070                14.7570                10.8611

                     49                     50                     51
                      A                      A                      A
 Frequencies --   1104.7676              1116.6857              1119.0814
 Red. masses --      3.0270                 1.9863                 2.0750
 Frc consts  --      2.1767                 1.4593                 1.5310
 IR Inten    --      2.4401                39.4178                21.8546

                     52                     53                     54
                      A                      A                      A
 Frequencies --   1148.1724              1173.8894              1185.9692
 Red. masses --      1.5615                 1.7342                 1.2675
 Frc consts  --      1.2129                 1.4080                 1.0504
 IR Inten    --     18.1005                41.0963                 0.6839

                     55                     56                     57
                      A                      A                      A
 Frequencies --   1194.5941              1210.2045              1214.7513
 Red. masses --      1.5882                 1.8137                 1.4599
 Frc consts  --      1.3354                 1.5651                 1.2692
 IR Inten    --     11.6597                10.1448                 8.1814

                     58                     59                     60
                      A                      A                      A
 Frequencies --   1252.5010              1258.0911              1274.5055
 Red. masses --      2.4408                 1.3783                 1.3390
 Frc consts  --      2.2560                 1.2853                 1.2815
 IR Inten    --     21.4123                 1.8882                 5.7644

                     61                     62                     63
                      A                      A                      A
 Frequencies --   1294.5567              1317.5153              1324.4841
 Red. masses --      1.7048                 3.7338                 1.3186
 Frc consts  --      1.6833                 3.8187                 1.3629
 IR Inten    --     21.2538                75.0872                 0.9612

                     64                     65                     66
                      A                      A                      A
 Frequencies --   1337.2993              1339.1317              1354.8375
 Red. masses --      1.9537                 1.2530                 2.3360
 Frc consts  --      2.0586                 1.3239                 2.5264
 IR Inten    --     94.9951                18.9883                49.2403

                     67                     68                     69
                      A                      A                      A
 Frequencies --   1356.2372              1366.2839              1369.9355
 Red. masses --      1.5175                 1.3229                 1.4194
 Frc consts  --      1.6446                 1.4550                 1.5695
 IR Inten    --     26.5706                 3.9808                 4.4345

                     70                     71                     72
                      A                      A                      A
 Frequencies --   1393.2798              1408.2829              1436.9512
 Red. masses --      1.6759                 1.2854                 1.2709
 Frc consts  --      1.9167                 1.5020                 1.5461
 IR Inten    --     53.3469                15.0581                17.0711

                     73                     74                     75
                      A                      A                      A
 Frequencies --   1456.4427              1488.9119              1501.2692
 Red. masses --      1.8791                 1.5164                 1.8108
 Frc consts  --      2.3485                 1.9806                 2.4045
 IR Inten    --    163.4680                43.3135                21.3833

                     76                     77                     78
                      A                      A                      A
 Frequencies --   1509.6297              1518.0381              1519.0305
 Red. masses --      1.0492                 1.0901                 1.5131
 Frc consts  --      1.4088                 1.4801                 2.0571
 IR Inten    --      4.7611                 3.2088                90.2199

                     79                     80                     81
                      A                      A                      A
 Frequencies --   1521.3112              1522.6051              1525.8508
 Red. masses --      1.1016                 1.0794                 1.0952
 Frc consts  --      1.5022                 1.4744                 1.5024
 IR Inten    --      8.3163                 9.0939                11.2088

                     82                     83                     84
                      A                      A                      A
 Frequencies --   1529.2480              1533.1944              1534.4556
 Red. masses --      1.2412                 1.1346                 1.1215
 Frc consts  --      1.7102                 1.5715                 1.5557
 IR Inten    --     35.4709                 3.6357                15.5662

                     85                     86                     87
                      A                      A                      A
 Frequencies --   1551.6604              1633.3574              1648.2503
 Red. masses --      1.1077                 6.4239                 5.9864
 Frc consts  --      1.5713                10.0974                 9.5821
 IR Inten    --      2.1359                54.5458                69.9725

                     88                     89                     90
                      A                      A                      A
 Frequencies --   1731.0854              3041.6625              3050.9474
 Red. masses --     10.8914                 1.0676                 1.0367
 Frc consts  --     19.2297                 5.8192                 5.6856
 IR Inten    --    297.1436                34.9701                20.5396

                     91                     92                     93
                      A                      A                      A
 Frequencies --   3054.2972              3068.3609              3068.7394
 Red. masses --      1.0762                 1.0702                 1.0298
 Frc consts  --      5.9154                 5.9363                 5.7136
 IR Inten    --     21.7309                28.4463                43.1523

                     94                     95                     96
                      A                      A                      A
 Frequencies --   3073.0133              3082.1033              3096.1429
 Red. masses --      1.0606                 1.0716                 1.0874
 Frc consts  --      5.9010                 5.9977                 6.1414
 IR Inten    --     29.6302                22.5933                48.1802

                     97                     98                     99
                      A                      A                      A
 Frequencies --   3101.8512              3111.8448              3116.4133
 Red. masses --      1.0903                 1.1018                 1.1048
 Frc consts  --      6.1808                 6.2860                 6.3219
 IR Inten    --     21.6716                30.7119                43.4646

                    100                    101                    102
                      A                      A                      A
 Frequencies --   3140.7799              3141.0263              3152.1388
 Red. masses --      1.0988                 1.1070                 1.0951
 Frc consts  --      6.3864                 6.4347                 6.4110
 IR Inten    --     21.6741                22.5384                29.9686

                    103                    104                    105
                      A                      A                      A
 Frequencies --   3156.9665              3169.7833              3175.0148
 Red. masses --      1.0990                 1.0914                 1.1066
 Frc consts  --      6.4536                 6.4607                 6.5723
 IR Inten    --     16.5277                 1.6042                22.6795

                    106                    107                    108
                      A                      A                      A
 Frequencies --   3180.5474              3199.9798              3223.6936
 Red. masses --      1.0895                 1.0898                 1.0962
 Frc consts  --      6.4935                 6.5747                 6.7118
 IR Inten    --     19.1493                 8.8047                15.9754

 - Thermochemistry -
 -------------------
 Temperature   298.150 Kelvin.  Pressure   1.00000 Atm.
 Atom     1 has atomic number  6 and mass  12.00000

 Molecular mass:   248.15248 amu.
 Principal axes and moments of inertia in atomic units:
                           1         2         3
     Eigenvalues --  3378.099214618.634905587.08889
           X            0.99991  -0.01351  -0.00074
           Y            0.01347   0.99911  -0.03993
           Z            0.00128   0.03992   0.99920
 This molecule is an asymmetric top.
 Rotational symmetry number  1.
 Warning -- assumption of classical behavior for rotation
           may cause significant error
 Rotational temperatures (Kelvin)      0.02564     0.01875     0.01550
 Rotational constants (GHZ):           0.53425     0.39075     0.32302
 Zero-point vibrational energy     864586.8 (Joules/Mol)
                                  206.64121 (Kcal/Mol)
 Warning -- explicit consideration of  26 degrees of freedom as
           vibrations may cause significant error
 Vibrational temperatures:     50.10    64.00    87.68    92.40   110.27
          (Kelvin)            151.61   154.96   213.69   225.26   246.72
                              305.74   339.87   354.89   388.49   393.51
                              434.20   456.53   550.24   579.66   615.43
                              680.06   745.92   751.62   790.18   844.56
                              892.97   908.41   962.18  1028.69  1089.77
                             1133.62  1142.18  1173.34  1202.73  1220.00
                             1248.28  1280.76  1312.29  1318.24  1348.50
                             1387.90  1393.50  1410.52  1457.65  1496.31
                             1520.72  1525.89  1572.07  1589.51  1606.66
                             1610.11  1651.96  1688.96  1706.35  1718.75
                             1741.21  1747.76  1802.07  1810.11  1833.73
                             1862.58  1895.61  1905.64  1924.08  1926.71
                             1949.31  1951.32  1965.78  1971.03  2004.62
                             2026.20  2067.45  2095.50  2142.21  2159.99
                             2172.02  2184.12  2185.55  2188.83  2190.69
                             2195.36  2200.25  2205.92  2207.74  2232.49
                             2350.04  2371.46  2490.65  4376.27  4389.63
                             4394.45  4414.69  4415.23  4421.38  4434.46
                             4454.66  4462.87  4477.25  4483.82  4518.88
                             4519.24  4535.22  4542.17  4560.61  4568.14
                             4576.10  4604.06  4638.18

 Zero-point correction=                           0.329304 (Hartree/Particle)
 Thermal correction to Energy=                    0.346702
 Thermal correction to Enthalpy=                  0.347647
 Thermal correction to Gibbs Free Energy=         0.283379
 Sum of electronic and zero-point Energies=           -805.234820
 Sum of electronic and thermal Energies=              -805.217421
 Sum of electronic and thermal Enthalpies=            -805.216477
 Sum of electronic and thermal Free Energies=         -805.280745

                     E (Thermal)             CV                S
                      KCal/Mol        Cal/Mol-Kelvin    Cal/Mol-Kelvin
 Total                  217.559             65.766            135.263
 Electronic               0.000              0.000              0.000
 Translational            0.889              2.981             42.427
 Rotational               0.889              2.981             32.833
 Vibrational            215.782             59.804             60.003
 Vibration     1          0.594              1.983              5.534
 Vibration     2          0.595              1.980              5.049
 Vibration     3          0.597              1.973              4.426
 Vibration     4          0.597              1.971              4.323
 Vibration     5          0.599              1.965              3.975
 Vibration     6          0.605              1.945              3.352
 Vibration     7          0.606              1.943              3.310
 Vibration     8          0.618              1.904              2.691
 Vibration     9          0.620              1.895              2.591
 Vibration    10          0.626              1.878              2.419
 Vibration    11          0.644              1.822              2.022
 Vibration    12          0.655              1.785              1.831
 Vibration    13          0.661              1.768              1.754
 Vibration    14          0.674              1.728              1.596
 Vibration    15          0.676              1.722              1.574
 Vibration    16          0.694              1.670              1.407
 Vibration    17          0.704              1.641              1.324
 Vibration    18          0.752              1.508              1.030
 Vibration    19          0.768              1.464              0.952
 Vibration    20          0.789              1.410              0.866
 Vibration    21          0.830              1.311              0.730
 Vibration    22          0.873              1.209              0.614
 Vibration    23          0.877              1.200              0.604
 Vibration    24          0.904              1.141              0.546
 Vibration    25          0.944              1.060              0.473
 Vibration    26          0.981              0.988              0.415

                           ! Non-Optimized Parameters !
 Normal termination of Gaussian 16 at Fri Dec 11 19:11:15 2020.

 ----------------------------------------------------------------------
 # B3LYP/6-311++G(d,p) empiricaldispersion=gd3bj scf=xqc pop=npa geom=c
 heck
 ----------------------------------------------------------------------

 ---------------------------------------
 CID_134061107_JID_8082_Energie_neutraal
 ---------------------------------------
 Structure from the checkpoint file:  "JID_8082.chk"
 Charge =  0 Multiplicity = 1

 SCF Done:  E(RB3LYP) =  -805.783129997     A.U. after   16 cycles
 Normal termination of Gaussian 16 at Fri Dec 11 19:21:41 2020.

 ----------------------------------------------------------------------
 # B3LYP/6-311++G(d,p) empiricaldispersion=gd3bj scf=xqc pop=npa geom=c
 heck
 ----------------------------------------------------------------------

 -------------------------------------
 CID_134061107_JID_8082_Energie_kation
 -------------------------------------
 Structure from the checkpoint file:  "JID_8082.chk"
 Charge =  1 Multiplicity = 2

 SCF Done:  E(UB3LYP) =  -805.485756043     A.U. after   28 cycles
 Normal termination of Gaussian 16 at Fri Dec 11 19:47:54 2020.
 Gaussian 16:  ES64L-G16RevA.03 25-Dec-2016

 ----------------------------------------------------------------------
 # B3LYP/6-311++G(d,p) empiricaldispersion=gd3bj scf=xqc pop=npa geom=c
 heck
 ----------------------------------------------------------------------

 ------------------------------------
 CID_134061107_JID_8082_Energie_anion
 ------------------------------------
 Structure from the checkpoint file:  "JID_8082.chk"
 Charge = -1 Multiplicity = 2

                         Standard orientation:
 ---------------------------------------------------------------------
 Center     Atomic      Atomic             Coordinates (Angstroms)
 Number     Number       Type             X           Y           Z
 ---------------------------------------------------------------------
      1          6           0        3.424113   -1.784611    0.422063
      2          6           0        3.055536   -0.843150   -0.724587
      3          7           0        1.743317   -0.213299   -0.525966
      4          6           0        1.711520    0.980878    0.338793
      5          6           0        1.339040    2.304770   -0.380841
      6          6           0        0.650907    3.154619    0.698163
      7          6           0       -0.151931    2.120771    1.506371
      8          6           0        0.804048    0.917685    1.609391
      9          6           0        0.668903   -0.908821   -1.012454
     10          8           0        0.791265   -1.976059   -1.610846
     11          6           0       -0.716963   -0.335736   -0.854940
     12          6           0       -1.598695   -0.835070    0.128085
     13          7           0       -2.862166   -0.454288    0.256073
     14          6           0       -3.342121    0.435564   -0.628853
     15          6           0       -2.585545    0.963297   -1.665100
     16          6           0       -1.251196    0.554740   -1.776409
     17          8           0       -1.088562   -1.735747    0.997884
     18          6           0       -1.975329   -2.249028    1.995910
     19          1           0        3.453412   -1.253197    1.380562
     20          1           0        4.409215   -2.233765    0.251789
     21          1           0        2.683699   -2.586399    0.492996
     22          1           0        3.796575   -0.043574   -0.830988
     23          1           0        3.014380   -1.396866   -1.663042
     24          1           0        2.743228    1.072269    0.684316
     25          1           0        2.215868    2.786946   -0.825364
     26          1           0        0.636747    2.099310   -1.190042
     27          1           0        0.028984    3.950690    0.275624
     28          1           0        1.401520    3.632037    1.342441
     29          1           0       -1.057208    1.844922    0.955176
     30          1           0       -0.466206    2.494030    2.486469
     31          1           0        0.297720   -0.042067    1.705531
     32          1           0        1.440741    1.029146    2.495021
     33          1           0       -4.382156    0.723890   -0.491983
     34          1           0       -3.019458    1.665396   -2.368747
     35          1           0       -0.628108    0.925627   -2.584789
     36          1           0       -2.347237   -1.446051    2.638860
     37          1           0       -2.828444   -2.753800    1.534554
     38          1           0       -1.376671   -2.956444    2.571020
 ---------------------------------------------------------------------

 SCF Done:  E(UB3LYP) =  -805.773697042     A.U. after   33 cycles
 SCF Done:  E(UB3LYP) =  -805.773697042     a.u. after    1 cycles

 The electronic state is 2-A.
 Alpha  occ. eigenvalues --  -19.05287 -18.97434 -14.23135 -14.18803 -10.16118
 Alpha  occ. eigenvalues --  -10.15274 -10.12308 -10.10195 -10.09658 -10.08714
 Alpha  occ. eigenvalues --  -10.06815 -10.06555 -10.06450 -10.06058 -10.05751
 Alpha  occ. eigenvalues --  -10.05672 -10.05210 -10.05147  -0.97652  -0.92649
 Alpha  occ. eigenvalues --   -0.82624  -0.82490  -0.72240  -0.69902  -0.66404
 Alpha  occ. eigenvalues --   -0.64950  -0.60654  -0.60363  -0.59924  -0.55376
 Alpha  occ. eigenvalues --   -0.52031  -0.50302  -0.49162  -0.46640  -0.44079
 Alpha  occ. eigenvalues --   -0.42475  -0.40293  -0.39487  -0.38821  -0.37269
 Alpha  occ. eigenvalues --   -0.36619  -0.35608  -0.34319  -0.33608  -0.33020
 Alpha  occ. eigenvalues --   -0.32317  -0.31043  -0.30876  -0.29303  -0.28877
 Alpha  occ. eigenvalues --   -0.28410  -0.28151  -0.26319  -0.25510  -0.25066
 Alpha  occ. eigenvalues --   -0.24427  -0.23740  -0.23415  -0.23186  -0.22755
 Alpha  occ. eigenvalues --   -0.22168  -0.20944  -0.17950  -0.16464  -0.14528
 Alpha  occ. eigenvalues --   -0.13270  -0.12362   0.04657
 Alpha virt. eigenvalues --    0.06345   0.07293   0.07524   0.07883   0.08681
 Alpha virt. eigenvalues --    0.09370   0.09516   0.10058   0.10236   0.10915
 Alpha virt. eigenvalues --    0.11276   0.11588   0.12080   0.12322   0.12615

  Beta  occ. eigenvalues --  -19.05293 -18.97418 -14.23129 -14.18621 -10.16125
  Beta  occ. eigenvalues --  -10.15310 -10.12305 -10.10183 -10.09644 -10.08536
  Beta  occ. eigenvalues --  -10.06621 -10.06508 -10.06409 -10.06045 -10.05733
  Beta  occ. eigenvalues --  -10.05661 -10.05201 -10.05130  -0.97650  -0.92614
  Beta  occ. eigenvalues --   -0.82557  -0.82237  -0.72202  -0.69564  -0.66265
  Beta  occ. eigenvalues --   -0.64904  -0.60592  -0.60320  -0.59847  -0.55200
  Beta  occ. eigenvalues --   -0.51823  -0.50174  -0.49128  -0.46588  -0.44004
  Beta  occ. eigenvalues --   -0.42391  -0.40256  -0.39356  -0.38737  -0.37227
  Beta  occ. eigenvalues --   -0.36561  -0.35561  -0.34287  -0.33548  -0.32954
  Beta  occ. eigenvalues --   -0.32274  -0.30949  -0.30819  -0.28963  -0.28773
  Beta  occ. eigenvalues --   -0.28297  -0.28072  -0.26280  -0.25475  -0.25022
  Beta  occ. eigenvalues --   -0.24394  -0.23638  -0.23382  -0.23112  -0.22686
  Beta  occ. eigenvalues --   -0.22054  -0.20825  -0.17061  -0.16123  -0.14337
  Beta  occ. eigenvalues --   -0.13216  -0.11872
  Beta virt. eigenvalues --    0.06909   0.07441   0.07604   0.08271   0.08698
  Beta virt. eigenvalues --    0.09011   0.09426   0.09903   0.10215   0.10442
  Beta virt. eigenvalues --    0.11178   0.11333   0.11531   0.12235   0.12471

 Mulliken charges and spin densities:
               1          2
     1  C    0.127202  -0.563297
     2  C   -0.242474   0.191596
     3  N    0.338985  -0.011319
     4  C   -0.422427   0.026175
     5  C    0.359640  -0.353121
     6  C    0.019563  -0.632171
     7  C   -0.148211  -0.150214
     8  C    0.368939  -0.586476
     9  C   -1.032539   0.112898
    10  O   -0.238212   0.004105
    11  C    0.257018  -0.081073
    12  C    0.345136  -0.136523
    13  N   -0.049597   0.081586
    14  C   -0.223648   0.184869
    15  C   -0.185142  -0.232225
    16  C   -0.245185   0.323924
    17  O   -0.032664  -0.001475
    18  C   -0.176842  -0.086610
    19  H   -0.063612   0.208237
    20  H   -0.031263   0.163726
    21  H    0.157306   0.024966
    22  H   -0.143641   0.303567
    23  H    0.152153   0.017028
    24  H   -0.198715   0.398719
    25  H   -0.212333   0.394875
    26  H    0.261282  -0.169696
    27  H   -0.005453   0.159688
    28  H   -0.259703   0.396181
    29  H    0.191173  -0.095211
    30  H   -0.044136   0.216509
    31  H    0.335011  -0.185612
    32  H   -0.585388   0.784495
    33  H    0.095085   0.044504
    34  H    0.060725   0.080568
    35  H    0.083542   0.074212
    36  H    0.137544   0.035734
    37  H    0.142567   0.023187
    38  H    0.108318   0.033673
 Sum of Mulliken charges =  -1.00000   1.00000

 Dipole moment (field-independent basis, Debye):
    X=             -3.6645    Y=             -2.1817    Z=             -1.5913  Tot=              4.5520
 Quadrupole moment (field-independent basis, Debye-Ang):
   XX=           -160.4734   YY=           -151.2124   ZZ=           -142.5066
   XY=             -8.6647   XZ=            -10.0091   YZ=            -16.7766

 Summary of Natural Population Analysis:

                                       Natural Population
                Natural  -----------------------------------------------
    Atom  No    Charge         Core      Valence    Rydberg      Total
 -----------------------------------------------------------------------
      C    1   -0.29216      0.99966     2.28768    0.00482     3.29216
      C    2   -0.08442      0.99962     2.07404    0.01077     3.08442
      N    3   -0.25143      0.99963     2.74009    0.01171     3.75143
      C    4   -0.00534      0.99957     1.99047    0.01531     3.00534
      C    5   -0.19387      0.99961     2.18573    0.00853     3.19387
      C    6   -0.18967      0.99963     2.18205    0.00799     3.18967
      C    7   -0.19296      0.99963     2.18508    0.00825     3.19296
      C    8   -0.20102      0.99961     2.19172    0.00969     3.20102
      C    9    0.34846      0.99959     1.62918    0.02277     2.65154
      O   10   -0.32317      0.99988     3.31818    0.00511     4.32317
      C   11   -0.07162      0.99940     2.05976    0.01246     3.07162
      C   12    0.27409      0.99942     1.71017    0.01632     2.72591
      N   13   -0.25109      0.99966     2.74002    0.01141     3.75109
      C   14    0.05656      0.99960     1.92948    0.01436     2.94344
      C   15   -0.15265      0.99956     2.14393    0.00917     3.15265
      C   16   -0.04171      0.99953     2.03328    0.00890     3.04171
      O   17   -0.27505      0.99985     3.26725    0.00795     4.27505
      C   18   -0.10133      0.99960     2.09359    0.00814     3.10133
      H   19    0.09911      0.00000     0.39982    0.00107     0.40089
      H   20    0.09525      0.00000     0.40402    0.00073     0.40475
      H   21    0.10483      0.00000     0.39432    0.00085     0.39517
      H   22    0.09237      0.00000     0.40653    0.00110     0.40763
      H   23    0.10700      0.00000     0.39177    0.00123     0.39300
      H   24    0.10323      0.00000     0.39357    0.00320     0.39677
      H   25    0.09860      0.00000     0.40037    0.00102     0.40140
      H   26    0.10172      0.00000     0.39662    0.00167     0.39828
      H   27    0.09656      0.00000     0.40262    0.00082     0.40344
      H   28    0.09552      0.00000     0.40261    0.00187     0.40448
      H   29    0.10017      0.00000     0.39731    0.00252     0.39983
      H   30    0.09715      0.00000     0.40185    0.00100     0.40285
      H   31    0.11007      0.00000     0.38788    0.00205     0.38993
      H   32    0.09958      0.00000     0.39832    0.00210     0.40042
      H   33    0.08362      0.00000     0.41535    0.00103     0.41638
      H   34    0.09986      0.00000     0.39923    0.00092     0.40014
      H   35    0.09859      0.00000     0.40039    0.00102     0.40141
      H   36    0.08951      0.00000     0.40915    0.00135     0.41049
      H   37    0.08887      0.00000     0.40980    0.00133     0.41113
      H   38    0.08678      0.00000     0.41240    0.00082     0.41322
 =======================================================================
   * Total *   -0.00000     17.99303    48.78560    0.22136    67.00000

 Normal termination of Gaussian 16 at Fri Dec 11 20:18:30 2020.
