 Gaussian 16, Revision A.03,

 -----------------------------------------------------------
 # opt freq B3LYP/6-31G(d) empiricaldispersion=gd3bj scf=xqc
 -----------------------------------------------------------

 -------------------------------
 CID_134412831_JID_3780_neutraal
 -------------------------------
 Symbolic Z-matrix:
 Charge =  0 Multiplicity = 1

 SCF Done:  E(RB3LYP) =  -594.146353728     A.U. after   14 cycles
 SCF Done:  E(RB3LYP) =  -594.149179841     A.U. after   12 cycles
 SCF Done:  E(RB3LYP) =  -594.149142564     A.U. after   12 cycles
 SCF Done:  E(RB3LYP) =  -594.149366997     A.U. after   12 cycles
 SCF Done:  E(RB3LYP) =  -594.149448694     A.U. after   11 cycles
 SCF Done:  E(RB3LYP) =  -594.149462114     A.U. after   10 cycles
 SCF Done:  E(RB3LYP) =  -594.149477967     A.U. after   11 cycles
 SCF Done:  E(RB3LYP) =  -594.149483063     A.U. after    9 cycles
 SCF Done:  E(RB3LYP) =  -594.149487406     A.U. after   10 cycles
 SCF Done:  E(RB3LYP) =  -594.149489460     A.U. after   10 cycles
 SCF Done:  E(RB3LYP) =  -594.149492626     A.U. after    9 cycles
 SCF Done:  E(RB3LYP) =  -594.149493269     A.U. after    9 cycles
 SCF Done:  E(RB3LYP) =  -594.149493470     A.U. after    9 cycles
 SCF Done:  E(RB3LYP) =  -594.149493636     A.U. after    8 cycles
 SCF Done:  E(RB3LYP) =  -594.149493655     A.U. after    8 cycles
 Optimization completed.
    -- Stationary point found.
 Normal termination of Gaussian 16 at Mon Dec 14 16:36:19 2020.

 --------------------------------------------------------------------
 #N Geom=AllCheck Guess=TCheck SCRF=Check GenChk RB3LYP/6-31G(d) Freq
 --------------------------------------------------------------------

 Structure from the checkpoint file:  "JID_3780.chk"
 -------------------------------
 CID_134412831_JID_3780_neutraal
 -------------------------------
 Charge =  0 Multiplicity = 1

 SCF Done:  E(RB3LYP) =  -594.149493655     A.U. after    1 cycles

  Exact polarizability: 142.841  -0.886 124.191 -10.249   3.250  74.954
 Approx polarizability: 193.326  -0.688 207.982 -20.971   7.929 112.527

                      1                      2                      3
                      A                      A                      A
 Frequencies --     20.6722                32.5178                47.6325
 Red. masses --      4.9858                 9.4060                 3.2126
 Frc consts  --      0.0013                 0.0059                 0.0043
 IR Inten    --      0.2632                 2.2195                 3.6028

                      4                      5                      6
                      A                      A                      A
 Frequencies --     75.1436               126.3779               151.4457
 Red. masses --      5.3543                 3.4478                 1.1181
 Frc consts  --      0.0178                 0.0324                 0.0151
 IR Inten    --      0.9894                 0.8041                 0.0509

                      7                      8                      9
                      A                      A                      A
 Frequencies --    158.4879               235.7217               259.3586
 Red. masses --      2.9856                 1.4947                 2.3692
 Frc consts  --      0.0442                 0.0489                 0.0939
 IR Inten    --      1.3023                24.4061                12.3173

                     10                     11                     12
                      A                      A                      A
 Frequencies --    302.9703               333.1990               358.2797
 Red. masses --      3.5252                 2.2679                 3.7568
 Frc consts  --      0.1906                 0.1483                 0.2841
 IR Inten    --     13.4983                 5.5750                 2.8782

                     13                     14                     15
                      A                      A                      A
 Frequencies --    419.0140               441.5391               458.7877
 Red. masses --      2.6913                 2.7830                 3.2234
 Frc consts  --      0.2784                 0.3197                 0.3998
 IR Inten    --      0.8236                 4.1454                 2.2906

                     16                     17                     18
                      A                      A                      A
 Frequencies --    485.1313               548.9064               587.1630
 Red. masses --      3.0172                 3.9226                 3.5481
 Frc consts  --      0.4184                 0.6963                 0.7207
 IR Inten    --      2.6967                 9.2946                46.6646

                     19                     20                     21
                      A                      A                      A
 Frequencies --    610.0620               661.2707               717.7225
 Red. masses --      2.5623                 2.2130                 2.8146
 Frc consts  --      0.5619                 0.5701                 0.8542
 IR Inten    --     20.3433                63.8844                61.9593

                     22                     23                     24
                      A                      A                      A
 Frequencies --    745.7946               765.7322               804.8040
 Red. masses --      3.5012                 3.6524                 2.5037
 Frc consts  --      1.1474                 1.2618                 0.9555
 IR Inten    --      3.0023                 1.5823                26.2021

                     25                     26                     27
                      A                      A                      A
 Frequencies --    834.4201               872.0764               894.0583
 Red. masses --      1.7461                 1.3033                 2.3864
 Frc consts  --      0.7163                 0.5840                 1.1239
 IR Inten    --      5.5739               125.5453                 4.7745

                     28                     29                     30
                      A                      A                      A
 Frequencies --    926.9729               942.4146               953.7662
 Red. masses --      1.9983                 2.1469                 1.4432
 Frc consts  --      1.0117                 1.1234                 0.7735
 IR Inten    --      4.4830                 3.5874                 1.3650

                     31                     32                     33
                      A                      A                      A
 Frequencies --    970.7419              1020.0994              1028.5808
 Red. masses --      2.1320                 2.6123                 1.4904
 Frc consts  --      1.1837                 1.6016                 0.9291
 IR Inten    --     21.7387                 9.7151                 9.6332

                     34                     35                     36
                      A                      A                      A
 Frequencies --   1072.8553              1075.3244              1135.6220
 Red. masses --      1.6903                 1.6525                 1.9509
 Frc consts  --      1.1463                 1.1258                 1.4823
 IR Inten    --      5.4832                 2.3312                51.6293

                     37                     38                     39
                      A                      A                      A
 Frequencies --   1142.8438              1191.4298              1196.1850
 Red. masses --      1.7235                 1.5321                 1.2606
 Frc consts  --      1.3262                 1.2814                 1.0627
 IR Inten    --     93.8816                 7.3730                 2.7779

                     40                     41                     42
                      A                      A                      A
 Frequencies --   1237.6852              1249.9442              1275.8314
 Red. masses --      1.9382                 1.4748                 2.9762
 Frc consts  --      1.7493                 1.3576                 2.8543
 IR Inten    --      7.4774               112.7881                 1.0403

                     43                     44                     45
                      A                      A                      A
 Frequencies --   1301.9142              1323.0480              1337.9571
 Red. masses --      1.3550                 1.4082                 1.5686
 Frc consts  --      1.3531                 1.4523                 1.6544
 IR Inten    --      5.1900                 0.7192                 1.5999

                     46                     47                     48
                      A                      A                      A
 Frequencies --   1363.8317              1396.4014              1440.3612
 Red. masses --      3.3503                 2.4880                 1.3910
 Frc consts  --      3.6716                 2.8584                 1.7002
 IR Inten    --     11.9999                72.1754                23.5804

                     49                     50                     51
                      A                      A                      A
 Frequencies --   1446.9860              1472.6191              1505.7161
 Red. masses --      1.2632                 2.7700                 1.1055
 Frc consts  --      1.5583                 3.5393                 1.4768
 IR Inten    --      6.1716                 1.5591                 7.1991

                     52                     53                     54
                      A                      A                      A
 Frequencies --   1517.7690              1522.8630              1553.0699
 Red. masses --      1.0510                 1.1165                 2.3547
 Frc consts  --      1.4265                 1.5255                 3.3463
 IR Inten    --      7.6726                11.0657                15.2203

                     55                     56                     57
                      A                      A                      A
 Frequencies --   1558.6435              1637.1190              1674.9223
 Red. masses --      1.1654                 5.9990                 4.6163
 Frc consts  --      1.6681                 9.4731                 7.6302
 IR Inten    --      2.0471                 3.3047                 0.4092

                     58                     59                     60
                      A                      A                      A
 Frequencies --   1689.9256              1846.3138              2990.1942
 Red. masses --      1.1517                 9.5242                 1.0719
 Frc consts  --      1.9379                19.1288                 5.6468
 IR Inten    --     27.4371               249.8309                68.9771

                     61                     62                     63
                      A                      A                      A
 Frequencies --   3043.3651              3074.2190              3086.8712
 Red. masses --      1.0386                 1.0900                 1.0585
 Frc consts  --      5.6679                 6.0694                 5.9426
 IR Inten    --     36.7680                28.8236                12.0346

                     64                     65                     66
                      A                      A                      A
 Frequencies --   3093.1974              3127.3279              3140.5601
 Red. masses --      1.0998                 1.1004                 1.1068
 Frc consts  --      6.2000                 6.3407                 6.4318
 IR Inten    --     20.6594                18.6555                 6.2530

                     67                     68                     69
                      A                      A                      A
 Frequencies --   3176.7989              3193.4933              3195.8797
 Red. masses --      1.0871                 1.0909                 1.0940
 Frc consts  --      6.4639                 6.5550                 6.5835
 IR Inten    --     13.6972                12.8090                15.0430

                     70                     71                     72
                      A                      A                      A
 Frequencies --   3453.3713              3543.9550              3682.0295
 Red. masses --      1.0493                 1.0928                 1.0639
 Frc consts  --      7.3728                 8.0865                 8.4978
 IR Inten    --      4.6136                 2.4711                44.3928

 - Thermochemistry -
 -------------------
 Temperature   298.150 Kelvin.  Pressure   1.00000 Atm.
 Atom     1 has atomic number  6 and mass  12.00000

 Molecular mass:   179.09463 amu.
 Principal axes and moments of inertia in atomic units:
                           1         2         3
     Eigenvalues --  1328.666773911.139584744.03557
           X            0.99990  -0.00902  -0.01074
           Y            0.00902   0.99996  -0.00072
           Z            0.01075   0.00062   0.99994
 This molecule is an asymmetric top.
 Rotational symmetry number  1.
 Warning -- assumption of classical behavior for rotation
           may cause significant error
 Rotational temperatures (Kelvin)      0.06519     0.02215     0.01826
 Rotational constants (GHZ):           1.35831     0.46144     0.38042
 Zero-point vibrational energy     572767.9 (Joules/Mol)
                                  136.89481 (Kcal/Mol)
 Warning -- explicit consideration of  19 degrees of freedom as
           vibrations may cause significant error
 Vibrational temperatures:     29.74    46.79    68.53   108.11   181.83
          (Kelvin)            217.90   228.03   339.15   373.16   435.91
                              479.40   515.48   602.87   635.28   660.09
                              698.00   789.75   844.80   877.74   951.42
                             1032.64  1073.03  1101.72  1157.93  1200.54
                             1254.72  1286.35  1333.71  1355.92  1372.26
                             1396.68  1467.70  1479.90  1543.60  1547.15
                             1633.91  1644.30  1714.20  1721.04  1780.75
                             1798.39  1835.64  1873.16  1903.57  1925.02
                             1962.25  2009.11  2072.36  2081.89  2118.77
                             2166.39  2183.73  2191.06  2234.52  2242.54
                             2355.45  2409.84  2431.43  2656.43  4302.22
                             4378.72  4423.12  4441.32  4450.42  4499.53
                             4518.57  4570.71  4594.72  4598.16  4968.63
                             5098.96  5297.62

 Zero-point correction=                           0.218156 (Hartree/Particle)
 Thermal correction to Energy=                    0.231227
 Thermal correction to Enthalpy=                  0.232171
 Thermal correction to Gibbs Free Energy=         0.176373
 Sum of electronic and zero-point Energies=           -593.931338
 Sum of electronic and thermal Energies=              -593.918266
 Sum of electronic and thermal Enthalpies=            -593.917322
 Sum of electronic and thermal Free Energies=         -593.973121

                     E (Thermal)             CV                S
                      KCal/Mol        Cal/Mol-Kelvin    Cal/Mol-Kelvin
 Total                  145.097             47.926            117.437
 Electronic               0.000              0.000              0.000
 Translational            0.889              2.981             41.455
 Rotational               0.889              2.981             31.578
 Vibrational            143.320             41.964             44.404
 Vibration     1          0.593              1.986              6.569
 Vibration     2          0.594              1.983              5.670
 Vibration     3          0.595              1.978              4.913
 Vibration     4          0.599              1.966              4.014
 Vibration     5          0.611              1.927              3.000
 Vibration     6          0.619              1.901              2.654
 Vibration     7          0.621              1.893              2.568
 Vibration     8          0.655              1.786              1.835
 Vibration     9          0.668              1.747              1.666
 Vibration    10          0.694              1.668              1.400
 Vibration    11          0.715              1.609              1.245
 Vibration    12          0.733              1.558              1.130
 Vibration    13          0.782              1.429              0.895
 Vibration    14          0.801              1.380              0.822
 Vibration    15          0.817              1.341              0.770
 Vibration    16          0.841              1.283              0.696
 Vibration    17          0.904              1.142              0.546
 Vibration    18          0.944              1.059              0.472
 Vibration    19          0.969              1.011              0.433

                           ! Non-Optimized Parameters !
 Normal termination of Gaussian 16 at Mon Dec 14 16:42:40 2020.

 ----------------------------------------------------------------------
 # B3LYP/6-311++G(d,p) empiricaldispersion=gd3bj scf=xqc pop=npa geom=c
 heck
 ----------------------------------------------------------------------

 ---------------------------------------
 CID_134412831_JID_3780_Energie_neutraal
 ---------------------------------------
 Structure from the checkpoint file:  "JID_3780.chk"
 Charge =  0 Multiplicity = 1

 SCF Done:  E(RB3LYP) =  -594.331434085     A.U. after   15 cycles
 Normal termination of Gaussian 16 at Mon Dec 14 16:45:37 2020.

 ----------------------------------------------------------------------
 # B3LYP/6-311++G(d,p) empiricaldispersion=gd3bj scf=xqc pop=npa geom=c
 heck
 ----------------------------------------------------------------------

 -------------------------------------
 CID_134412831_JID_3780_Energie_kation
 -------------------------------------
 Structure from the checkpoint file:  "JID_3780.chk"
 Charge =  1 Multiplicity = 2

 SCF Done:  E(UB3LYP) =  -594.023425693     A.U. after   26 cycles
 Normal termination of Gaussian 16 at Mon Dec 14 16:52:48 2020.
 Gaussian 16:  ES64L-G16RevA.03 25-Dec-2016

 ----------------------------------------------------------------------
 # B3LYP/6-311++G(d,p) empiricaldispersion=gd3bj scf=xqc pop=npa geom=c
 heck
 ----------------------------------------------------------------------

 ------------------------------------
 CID_134412831_JID_3780_Energie_anion
 ------------------------------------
 Structure from the checkpoint file:  "JID_3780.chk"
 Charge = -1 Multiplicity = 2

                         Standard orientation:
 ---------------------------------------------------------------------
 Center     Atomic      Atomic             Coordinates (Angstroms)
 Number     Number       Type             X           Y           Z
 ---------------------------------------------------------------------
      1          6           0        3.232422    1.324999   -0.662954
      2          6           0        1.828028    0.981244   -0.220798
      3          6           0        1.369779   -0.350399   -0.179766
      4          6           0        0.066595   -0.616876    0.243082
      5          6           0       -0.806757    0.406815    0.619474
      6          6           0       -0.355485    1.725923    0.561430
      7          6           0        0.947360    2.002149    0.151251
      8          6           0       -2.224360    0.078059    1.053370
      9          6           0       -3.016794   -0.440334   -0.129586
     10          8           0       -3.071723   -1.596595   -0.484983
     11          8           0       -3.635620    0.562713   -0.799530
     12          6           0        2.278690   -1.508018   -0.527452
     13          7           0        2.893894   -2.051845    0.696867
     14          1           0        3.988659    0.739340   -0.127291
     15          1           0        3.379837    1.131996   -1.733118
     16          1           0        3.446488    2.383178   -0.486523
     17          1           0       -0.276759   -1.647525    0.275729
     18          1           0       -1.020793    2.538839    0.840370
     19          1           0        1.289398    3.033728    0.119076
     20          1           0       -2.221149   -0.710151    1.811553
     21          1           0       -2.712408    0.965414    1.464089
     22          1           0       -4.068428    0.144907   -1.567951
     23          1           0        1.683792   -2.310873   -0.977830
     24          1           0        3.008438   -1.191247   -1.289927
     25          1           0        3.586795   -2.756241    0.444978
     26          1           0        3.400751   -1.308748    1.176578
 ---------------------------------------------------------------------

 SCF Done:  E(UB3LYP) =  -594.320047113     A.U. after   33 cycles
 SCF Done:  E(UB3LYP) =  -594.320047113     a.u. after    1 cycles

 The electronic state is 2-A.
 Alpha  occ. eigenvalues --  -19.07516 -19.01697 -14.18522 -10.20738 -10.08993
 Alpha  occ. eigenvalues --  -10.08851 -10.08096 -10.07570 -10.06994 -10.06744
 Alpha  occ. eigenvalues --  -10.06659 -10.06471 -10.06451  -1.01400  -0.92431
 Alpha  occ. eigenvalues --   -0.78130  -0.75408  -0.69854  -0.65027  -0.64233
 Alpha  occ. eigenvalues --   -0.57999  -0.55399  -0.51583  -0.49630  -0.46026
 Alpha  occ. eigenvalues --   -0.40499  -0.39941  -0.38858  -0.37909  -0.37234
 Alpha  occ. eigenvalues --   -0.35623  -0.34006  -0.32856  -0.31596  -0.31114
 Alpha  occ. eigenvalues --   -0.30588  -0.30210  -0.29201  -0.27900  -0.27742
 Alpha  occ. eigenvalues --   -0.24571  -0.23902  -0.23128  -0.22838  -0.18791
 Alpha  occ. eigenvalues --   -0.14777  -0.13796  -0.13564   0.04375
 Alpha virt. eigenvalues --    0.05932   0.07001   0.07347   0.08384   0.08873
 Alpha virt. eigenvalues --    0.09231   0.09548   0.10195   0.10742   0.11374
 Alpha virt. eigenvalues --    0.12007   0.12610   0.12712   0.13879   0.14983

  Beta  occ. eigenvalues --  -19.07481 -19.01658 -14.18464 -10.20689 -10.08983
  Beta  occ. eigenvalues --  -10.08839 -10.08079 -10.07524 -10.06963 -10.06746
  Beta  occ. eigenvalues --  -10.06601 -10.06471 -10.06419  -1.01321  -0.92358
  Beta  occ. eigenvalues --   -0.78036  -0.75329  -0.69773  -0.64944  -0.64149
  Beta  occ. eigenvalues --   -0.57915  -0.55304  -0.51485  -0.49595  -0.45929
  Beta  occ. eigenvalues --   -0.40425  -0.39868  -0.38810  -0.37822  -0.37163
  Beta  occ. eigenvalues --   -0.35486  -0.33920  -0.32799  -0.31508  -0.31059
  Beta  occ. eigenvalues --   -0.30529  -0.30158  -0.29140  -0.27853  -0.27696
  Beta  occ. eigenvalues --   -0.24438  -0.23854  -0.23010  -0.22770  -0.18730
  Beta  occ. eigenvalues --   -0.14645  -0.13672  -0.13371
  Beta virt. eigenvalues --    0.06603   0.07121   0.07523   0.07911   0.08709
  Beta virt. eigenvalues --    0.09363   0.09593   0.09904   0.10460   0.11025
  Beta virt. eigenvalues --    0.11891   0.12236   0.12873   0.12974   0.13969

 Mulliken charges and spin densities:
               1          2
     1  C    2.074801  -2.688132
     2  C   -0.522580   1.225666
     3  C    0.046630   0.258434
     4  C   -1.034055   0.444828
     5  C    0.727681   0.565005
     6  C   -0.491873   0.048321
     7  C   -0.084116  -0.533072
     8  C    0.636866  -1.273010
     9  C    0.171342  -0.229189
    10  O   -0.298338   0.031703
    11  O   -0.203201   0.046595
    12  C   -0.305416  -0.594090
    13  N   -0.368200   0.059521
    14  H   -0.496216   0.660631
    15  H    0.140035   0.027135
    16  H   -0.236247   0.380685
    17  H    0.162646   0.027938
    18  H   -0.226715   0.365815
    19  H   -0.120671   0.245488
    20  H   -0.031172   0.211023
    21  H   -0.108832   0.291747
    22  H   -0.105297   0.393281
    23  H    0.027354   0.129018
    24  H   -0.217872   0.345182
    25  H   -0.261234   0.490874
    26  H    0.124682   0.068603
 Sum of Mulliken charges =  -1.00000   1.00000

 Dipole moment (field-independent basis, Debye):
    X=             -3.2690    Y=              1.9356    Z=             -0.5936  Tot=              3.8451
 Quadrupole moment (field-independent basis, Debye-Ang):
   XX=           -157.1829   YY=           -118.4156   ZZ=           -101.3397
   XY=              5.7686   XZ=             -4.6572   YZ=              0.9702

 Summary of Natural Population Analysis:

                                       Natural Population
                Natural  -----------------------------------------------
    Atom  No    Charge         Core      Valence    Rydberg      Total
 -----------------------------------------------------------------------
      C    1   -0.29594      0.99964     2.29037    0.00593     3.29594
      C    2   -0.00788      0.99947     1.99841    0.01000     3.00788
      C    3   -0.01199      0.99947     2.00186    0.01066     3.01199
      C    4   -0.08704      0.99946     2.07926    0.00831     3.08704
      C    5   -0.01997      0.99949     2.01046    0.01002     3.01997
      C    6   -0.08805      0.99951     2.07911    0.00943     3.08805
      C    7   -0.10076      0.99952     2.09238    0.00887     3.10076
      C    8   -0.24155      0.99955     2.23222    0.00978     3.24155
      C    9    0.41526      0.99973     1.55910    0.02592     2.58474
      O   10   -0.30688      0.99987     3.30090    0.00612     4.30688
      O   11   -0.34499      0.99988     3.33864    0.00648     4.34499
      C   12   -0.09711      0.99960     2.08535    0.01216     3.09711
      N   13   -0.41756      0.99977     2.90725    0.01054     3.91756
      H   14    0.10687      0.00000     0.39077    0.00236     0.39313
      H   15    0.10277      0.00000     0.39621    0.00101     0.39723
      H   16    0.10138      0.00000     0.39754    0.00108     0.39862
      H   17    0.10538      0.00000     0.39323    0.00139     0.39462
      H   18    0.09871      0.00000     0.40027    0.00101     0.40129
      H   19    0.09658      0.00000     0.40222    0.00120     0.40342
      H   20    0.11408      0.00000     0.38479    0.00112     0.38592
      H   21    0.11244      0.00000     0.38605    0.00152     0.38756
      H   22    0.23964      0.00000     0.25471    0.00565     0.26036
      H   23    0.09257      0.00000     0.40614    0.00129     0.40743
      H   24    0.08470      0.00000     0.41336    0.00194     0.41530
      H   25    0.17561      0.00000     0.32052    0.00387     0.32439
      H   26    0.17375      0.00000     0.32399    0.00226     0.32625
 =======================================================================
   * Total *   -0.00000     12.99495    34.84513    0.15993    48.00000

 Normal termination of Gaussian 16 at Mon Dec 14 17:01:55 2020.
