 Gaussian 16, Revision A.03,

 -----------------------------------------------------------
 # opt freq B3LYP/6-31G(d) empiricaldispersion=gd3bj scf=xqc
 -----------------------------------------------------------

 -------------------------------
 CID_105080064_JID_9990_neutraal
 -------------------------------
 Symbolic Z-matrix:
 Charge =  0 Multiplicity = 1

 SCF Done:  E(RB3LYP) =  -806.527247428     A.U. after   15 cycles
 SCF Done:  E(RB3LYP) =  -806.533762564     A.U. after   13 cycles
 SCF Done:  E(RB3LYP) =  -806.534170343     A.U. after   13 cycles
 SCF Done:  E(RB3LYP) =  -806.535044852     A.U. after   13 cycles
 SCF Done:  E(RB3LYP) =  -806.535121092     A.U. after   12 cycles
 SCF Done:  E(RB3LYP) =  -806.535304568     A.U. after   12 cycles
 SCF Done:  E(RB3LYP) =  -806.535466557     A.U. after   11 cycles
 SCF Done:  E(RB3LYP) =  -806.535524341     A.U. after   12 cycles
 SCF Done:  E(RB3LYP) =  -806.535547085     A.U. after   10 cycles
 SCF Done:  E(RB3LYP) =  -806.535574511     A.U. after   10 cycles
 SCF Done:  E(RB3LYP) =  -806.535626767     A.U. after   10 cycles
 SCF Done:  E(RB3LYP) =  -806.535630398     A.U. after    9 cycles
 SCF Done:  E(RB3LYP) =  -806.535631424     A.U. after    8 cycles
 SCF Done:  E(RB3LYP) =  -806.535632060     A.U. after    8 cycles
 SCF Done:  E(RB3LYP) =  -806.535632240     A.U. after    8 cycles
 Optimization completed.
    -- Stationary point found.
 Normal termination of Gaussian 16 at Sun Dec 13 20:51:53 2020.

 --------------------------------------------------------------------
 #N Geom=AllCheck Guess=TCheck SCRF=Check GenChk RB3LYP/6-31G(d) Freq
 --------------------------------------------------------------------

 Structure from the checkpoint file:  "JID_9990.chk"
 -------------------------------
 CID_105080064_JID_9990_neutraal
 -------------------------------
 Charge =  0 Multiplicity = 1

 SCF Done:  E(RB3LYP) =  -806.535632240     A.U. after    1 cycles

  Exact polarizability: 201.324 -13.615 189.956  32.882   8.284 130.468
 Approx polarizability: 294.682 -25.601 313.138  64.008  26.587 216.017

                      1                      2                      3
                      A                      A                      A
 Frequencies --     30.2570                37.6520                61.8771
 Red. masses --      4.5742                 3.9839                 3.1452
 Frc consts  --      0.0025                 0.0033                 0.0071
 IR Inten    --      0.8394                 1.1685                 1.5272

                      4                      5                      6
                      A                      A                      A
 Frequencies --     78.2623                78.9432                92.1719
 Red. masses --      1.2263                 1.1183                 3.4914
 Frc consts  --      0.0044                 0.0041                 0.0175
 IR Inten    --      0.2121                 0.4809                 0.8003

                      7                      8                      9
                      A                      A                      A
 Frequencies --    104.1777               128.5878               138.9342
 Red. masses --      3.3975                 2.0503                 1.8731
 Frc consts  --      0.0217                 0.0200                 0.0213
 IR Inten    --      1.4792                 0.2812                 1.6847

                     10                     11                     12
                      A                      A                      A
 Frequencies --    163.7681               164.6134               186.1831
 Red. masses --      1.4607                 1.1458                 3.6684
 Frc consts  --      0.0231                 0.0183                 0.0749
 IR Inten    --      1.3432                 0.6646                 1.6084

                     13                     14                     15
                      A                      A                      A
 Frequencies --    213.8649               255.1482               286.2108
 Red. masses --      4.0181                 2.9660                 2.3102
 Frc consts  --      0.1083                 0.1138                 0.1115
 IR Inten    --      0.5861                13.2739                12.9254

                     16                     17                     18
                      A                      A                      A
 Frequencies --    299.4066               302.4904               324.7785
 Red. masses --      1.3974                 3.0365                 2.8043
 Frc consts  --      0.0738                 0.1637                 0.1743
 IR Inten    --     83.3886                 2.4186                 3.8136

                     19                     20                     21
                      A                      A                      A
 Frequencies --    337.0949               340.5776               386.4319
 Red. masses --      2.9168                 3.4575                 4.4186
 Frc consts  --      0.1953                 0.2363                 0.3888
 IR Inten    --      1.1973                 2.0088                 1.6523

                     22                     23                     24
                      A                      A                      A
 Frequencies --    402.6316               450.3413               464.2998
 Red. masses --      3.5976                 2.8662                 3.3786
 Frc consts  --      0.3436                 0.3425                 0.4291
 IR Inten    --      6.2960                 2.4078                 3.0290

                     25                     26                     27
                      A                      A                      A
 Frequencies --    477.7964               486.6966               499.1682
 Red. masses --      3.7870                 3.1812                 3.5716
 Frc consts  --      0.5094                 0.4440                 0.5243
 IR Inten    --      0.5962                 3.0814                 7.1931

                     28                     29                     30
                      A                      A                      A
 Frequencies --    510.7552               576.3615               601.7204
 Red. masses --      4.2921                 3.8356                 4.3868
 Frc consts  --      0.6597                 0.7507                 0.9358
 IR Inten    --      0.8817                 0.6749                 9.1890

                     31                     32                     33
                      A                      A                      A
 Frequencies --    623.8393               648.7431               732.8046
 Red. masses --      4.1984                 5.3413                 4.1245
 Frc consts  --      0.9627                 1.3245                 1.3050
 IR Inten    --      2.4938                 3.5290                 1.0693

                     34                     35                     36
                      A                      A                      A
 Frequencies --    744.0905               753.3267               773.7059
 Red. masses --      3.7790                 5.6947                 3.9372
 Frc consts  --      1.2328                 1.9041                 1.3886
 IR Inten    --      0.8363                 3.9366                 2.0692

                     37                     38                     39
                      A                      A                      A
 Frequencies --    779.0308               793.2671               829.0984
 Red. masses --      4.3091                 4.3228                 1.2692
 Frc consts  --      1.5408                 1.6027                 0.5140
 IR Inten    --      0.6187                 6.9603                16.2896

                     40                     41                     42
                      A                      A                      A
 Frequencies --    912.5581               927.5196               938.0625
 Red. masses --      1.6437                 1.6286                 1.6670
 Frc consts  --      0.8065                 0.8255                 0.8643
 IR Inten    --      3.7098                 6.6261                13.1641

                     43                     44                     45
                      A                      A                      A
 Frequencies --    952.7564               956.5614               984.5082
 Red. masses --      1.5969                 2.0090                 1.8172
 Frc consts  --      0.8540                 1.0830                 1.0377
 IR Inten    --      0.0484                 2.6412                 1.4202

                     46                     47                     48
                      A                      A                      A
 Frequencies --   1017.4129              1022.2246              1035.2866
 Red. masses --      2.0391                 2.2433                 1.6066
 Frc consts  --      1.2436                 1.3811                 1.0145
 IR Inten    --      0.8890                 0.1978                 6.2768

                     49                     50                     51
                      A                      A                      A
 Frequencies --   1044.0345              1053.4571              1072.3271
 Red. masses --      1.5960                 1.7030                 1.7070
 Frc consts  --      1.0250                 1.1135                 1.1565
 IR Inten    --      7.4798                 0.8592                 9.9700

                     52                     53                     54
                      A                      A                      A
 Frequencies --   1073.8423              1076.7208              1079.4953
 Red. masses --      1.5306                 1.6721                 1.5175
 Frc consts  --      1.0399                 1.1421                 1.0419
 IR Inten    --      0.2519                11.9317                 7.2684

                     55                     56                     57
                      A                      A                      A
 Frequencies --   1086.2026              1143.9904              1157.5113
 Red. masses --      3.3979                 2.2473                 2.7833
 Frc consts  --      2.3620                 1.7328                 2.1972
 IR Inten    --     67.5525                 5.0758                31.4257

                     58                     59                     60
                      A                      A                      A
 Frequencies --   1170.1984              1192.0025              1205.8645
 Red. masses --      4.6402                 1.6577                 1.2910
 Frc consts  --      3.7438                 1.3878                 1.1060
 IR Inten    --      7.6123                 1.2317                 2.2286

                     61                     62                     63
                      A                      A                      A
 Frequencies --   1233.4512              1249.5561              1260.7875
 Red. masses --      1.4346                 1.9722                 2.0715
 Frc consts  --      1.2859                 1.8143                 1.9401
 IR Inten    --     42.5206                 2.4151                30.7585

                     64                     65                     66
                      A                      A                      A
 Frequencies --   1281.2924              1292.1071              1329.5112
 Red. masses --      3.1308                 2.6114                 1.3972
 Frc consts  --      3.0283                 2.5688                 1.4551
 IR Inten    --      0.7888                 9.6104                 2.6799

                     67                     68                     69
                      A                      A                      A
 Frequencies --   1336.2784              1355.6872              1373.6590
 Red. masses --      1.4056                 4.5584                 1.2859
 Frc consts  --      1.4788                 4.9361                 1.4295
 IR Inten    --      1.6951                 3.9182                11.4771

                     70                     71                     72
                      A                      A                      A
 Frequencies --   1404.3131              1427.0257              1435.5447
 Red. masses --      2.9108                 1.4649                 1.3198
 Frc consts  --      3.3821                 1.7576                 1.6025
 IR Inten    --      2.2674                16.2774                 0.3855

                     73                     74                     75
                      A                      A                      A
 Frequencies --   1441.9253              1444.7802              1456.8627
 Red. masses --      1.2632                 1.2567                 2.7835
 Frc consts  --      1.5474                 1.5456                 3.4808
 IR Inten    --      0.9686                 0.5985                78.9069

                     76                     77                     78
                      A                      A                      A
 Frequencies --   1460.8850              1464.9463              1509.3310
 Red. masses --      2.8105                 1.8232                 1.1839
 Frc consts  --      3.5339                 2.3053                 1.5890
 IR Inten    --      0.1896                 8.8711                16.8213

                     79                     80                     81
                      A                      A                      A
 Frequencies --   1513.1349              1515.0792              1515.5880
 Red. masses --      1.0766                 1.0457                 1.1005
 Frc consts  --      1.4524                 1.4143                 1.4893
 IR Inten    --      5.9317                 3.8266                 5.3045

                     82                     83                     84
                      A                      A                      A
 Frequencies --   1515.9760              1518.8138              1519.9604
 Red. masses --      1.0578                 1.0501                 1.0572
 Frc consts  --      1.4323                 1.4272                 1.4391
 IR Inten    --      6.6099                 7.0961                 4.1801

                     85                     86                     87
                      A                      A                      A
 Frequencies --   1525.7102              1533.5494              1557.0252
 Red. masses --      1.1101                 1.1149                 2.7685
 Frc consts  --      1.5226                 1.5448                 3.9545
 IR Inten    --      8.2870                 9.8919                15.3362

                     88                     89                     90
                      A                      A                      A
 Frequencies --   1595.9863              1636.2510              1648.1690
 Red. masses --      4.9904                 5.4424                 6.2336
 Frc consts  --      7.4893                 8.5850                 9.9768
 IR Inten    --      2.6542                 3.6279                17.0262

                     91                     92                     93
                      A                      A                      A
 Frequencies --   1677.0959              3030.6214              3037.8506
 Red. masses --      5.9654                 1.0814                 1.0416
 Frc consts  --      9.8856                 5.8522                 5.6635
 IR Inten    --      3.5822                19.6746                22.5672

                     94                     95                     96
                      A                      A                      A
 Frequencies --   3045.0620              3047.8451              3050.3193
 Red. masses --      1.0372                 1.0598                 1.0387
 Frc consts  --      5.6666                 5.8004                 5.6941
 IR Inten    --     26.3319                46.1845                23.4566

                     97                     98                     99
                      A                      A                      A
 Frequencies --   3058.0170              3085.6767              3098.2221
 Red. masses --      1.0431                 1.1005                 1.1020
 Frc consts  --      5.7474                 6.1736                 6.2323
 IR Inten    --     21.4315                22.8054                23.6990

                    100                    101                    102
                      A                      A                      A
 Frequencies --   3100.4209              3102.7389              3125.9477
 Red. masses --      1.1009                 1.1009                 1.0934
 Frc consts  --      6.2351                 6.2441                 6.2950
 IR Inten    --     15.3997                17.1471                 4.1237

                    103                    104                    105
                      A                      A                      A
 Frequencies --   3127.3733              3127.5851              3157.9583
 Red. masses --      1.0991                 1.1015                 1.0999
 Frc consts  --      6.3334                 6.3485                 6.4628
 IR Inten    --     14.1501                22.8854                 6.7832

                    106                    107                    108
                      A                      A                      A
 Frequencies --   3162.5423              3175.1326              3178.9951
 Red. masses --      1.1020                 1.0870                 1.0898
 Frc consts  --      6.4937                 6.4565                 6.4890
 IR Inten    --      3.7292                14.6725                13.8383

                    109                    110                    111
                      A                      A                      A
 Frequencies --   3193.5035              3213.1250              3744.2672
 Red. masses --      1.0943                 1.0912                 1.0661
 Frc consts  --      6.5753                 6.6375                 8.8058
 IR Inten    --     26.5799                 2.6334                13.7799

 - Thermochemistry -
 -------------------
 Temperature   298.150 Kelvin.  Pressure   1.00000 Atm.
 Atom     1 has atomic number  6 and mass  12.00000

 Molecular mass:   256.15756 amu.
 Principal axes and moments of inertia in atomic units:
                           1         2         3
     Eigenvalues --  3322.762475696.766797344.97001
           X            0.99963  -0.01527   0.02260
           Y            0.01554   0.99981  -0.01176
           Z           -0.02242   0.01211   0.99968
 This molecule is an asymmetric top.
 Rotational symmetry number  1.
 Warning -- assumption of classical behavior for rotation
           may cause significant error
 Rotational temperatures (Kelvin)      0.02607     0.01520     0.01179
 Rotational constants (GHZ):           0.54314     0.31680     0.24571
 Zero-point vibrational energy     868220.5 (Joules/Mol)
                                  207.50968 (Kcal/Mol)
 Warning -- explicit consideration of  30 degrees of freedom as
           vibrations may cause significant error
 Vibrational temperatures:     43.53    54.17    89.03   112.60   113.58
          (Kelvin)            132.61   149.89   185.01   199.90   235.63
                              236.84   267.88   307.70   367.10   411.79
                              430.78   435.22   467.28   485.00   490.02
                              555.99   579.30   647.94   668.02   687.44
                              700.25   718.19   734.86   829.26   865.74
                              897.57   933.40  1054.34  1070.58  1083.87
                             1113.19  1120.85  1141.33  1192.89  1312.97
                             1334.49  1349.66  1370.80  1376.28  1416.49
                             1463.83  1470.75  1489.55  1502.13  1515.69
                             1542.84  1545.02  1549.16  1553.15  1562.80
                             1645.95  1665.40  1683.65  1715.03  1734.97
                             1774.66  1797.83  1813.99  1843.49  1859.05
                             1912.87  1922.61  1950.53  1976.39  2020.49
                             2053.17  2065.43  2074.61  2078.72  2096.10
                             2101.89  2107.73  2171.59  2177.06  2179.86
                             2180.59  2181.15  2185.23  2186.88  2195.16
                             2206.44  2240.21  2296.27  2354.20  2371.35
                             2412.97  4360.39  4370.79  4381.17  4385.17
                             4388.73  4399.80  4439.60  4457.65  4460.81
                             4464.15  4497.54  4499.59  4499.90  4543.60
                             4550.19  4568.31  4573.86  4594.74  4622.97
                             5387.17

 Zero-point correction=                           0.330688 (Hartree/Particle)
 Thermal correction to Energy=                    0.349854
 Thermal correction to Enthalpy=                  0.350798
 Thermal correction to Gibbs Free Energy=         0.282951
 Sum of electronic and zero-point Energies=           -806.204945
 Sum of electronic and thermal Energies=              -806.185778
 Sum of electronic and thermal Enthalpies=            -806.184834
 Sum of electronic and thermal Free Energies=         -806.252681

                     E (Thermal)             CV                S
                      KCal/Mol        Cal/Mol-Kelvin    Cal/Mol-Kelvin
 Total                  219.537             72.185            142.796
 Electronic               0.000              0.000              0.000
 Translational            0.889              2.981             42.522
 Rotational               0.889              2.981             33.297
 Vibrational            217.759             66.224             66.978
 Vibration     1          0.594              1.984              5.812
 Vibration     2          0.594              1.982              5.379
 Vibration     3          0.597              1.973              4.396
 Vibration     4          0.600              1.964              3.934
 Vibration     5          0.600              1.963              3.917
 Vibration     6          0.602              1.955              3.613
 Vibration     7          0.605              1.946              3.375
 Vibration     8          0.611              1.925              2.967
 Vibration     9          0.615              1.914              2.818
 Vibration    10          0.623              1.887              2.506
 Vibration    11          0.623              1.886              2.496
 Vibration    12          0.632              1.859              2.265
 Vibration    13          0.644              1.820              2.010
 Vibration    14          0.666              1.754              1.695
 Vibration    15          0.684              1.699              1.496
 Vibration    16          0.692              1.675              1.420
 Vibration    17          0.694              1.669              1.403
 Vibration    18          0.709              1.626              1.286
 Vibration    19          0.718              1.601              1.226
 Vibration    20          0.720              1.594              1.209
 Vibration    21          0.755              1.499              1.014
 Vibration    22          0.768              1.464              0.953
 Vibration    23          0.809              1.360              0.795
 Vibration    24          0.822              1.329              0.754
 Vibration    25          0.834              1.299              0.716
 Vibration    26          0.843              1.280              0.692
 Vibration    27          0.855              1.252              0.660
 Vibration    28          0.866              1.226              0.632
 Vibration    29          0.933              1.082              0.492
 Vibration    30          0.960              1.028              0.447

                           ! Non-Optimized Parameters !
 Normal termination of Gaussian 16 at Sun Dec 13 21:13:33 2020.

 ----------------------------------------------------------------------
 # B3LYP/6-311++G(d,p) empiricaldispersion=gd3bj scf=xqc pop=npa geom=c
 heck
 ----------------------------------------------------------------------

 ---------------------------------------
 CID_105080064_JID_9990_Energie_neutraal
 ---------------------------------------
 Structure from the checkpoint file:  "JID_9990.chk"
 Charge =  0 Multiplicity = 1

 SCF Done:  E(RB3LYP) =  -806.753694065     A.U. after   15 cycles
 Normal termination of Gaussian 16 at Sun Dec 13 21:21:21 2020.

 ----------------------------------------------------------------------
 # B3LYP/6-311++G(d,p) empiricaldispersion=gd3bj scf=xqc pop=npa geom=c
 heck
 ----------------------------------------------------------------------

 -------------------------------------
 CID_105080064_JID_9990_Energie_kation
 -------------------------------------
 Structure from the checkpoint file:  "JID_9990.chk"
 Charge =  1 Multiplicity = 2

 SCF Done:  E(UB3LYP) =  -806.462744956     A.U. after   30 cycles
 Normal termination of Gaussian 16 at Sun Dec 13 21:43:19 2020.
 Gaussian 16:  ES64L-G16RevA.03 25-Dec-2016

 ----------------------------------------------------------------------
 # B3LYP/6-311++G(d,p) empiricaldispersion=gd3bj scf=xqc pop=npa geom=c
 heck
 ----------------------------------------------------------------------

 ------------------------------------
 CID_105080064_JID_9990_Energie_anion
 ------------------------------------
 Structure from the checkpoint file:  "JID_9990.chk"
 Charge = -1 Multiplicity = 2

                         Standard orientation:
 ---------------------------------------------------------------------
 Center     Atomic      Atomic             Coordinates (Angstroms)
 Number     Number       Type             X           Y           Z
 ---------------------------------------------------------------------
      1          6           0        1.041075    3.340658   -0.811392
      2          6           0        1.677876    1.987446   -0.617613
      3          6           0        1.007410    0.828539   -1.020772
      4          6           0        1.514707   -0.450118   -0.779841
      5          6           0        2.767719   -0.591344   -0.149568
      6          6           0        3.456313    0.567424    0.220466
      7          6           0        2.919145    1.836589    0.004350
      8          6           0        3.360969   -1.949617    0.141943
      9          6           0        0.651126   -1.646863   -1.096018
     10          6           0       -0.311498   -2.024028    0.063971
     11          6           0       -1.265609   -0.886701    0.350349
     12          6           0       -1.032833    0.086472    1.346993
     13          7           0       -1.831673    1.152384    1.489121
     14          7           0       -2.892102    1.329373    0.700191
     15          6           0       -3.191420    0.415773   -0.230319
     16          6           0       -2.390379   -0.715714   -0.434624
     17          6           0       -4.427152    0.673879   -1.049266
     18          6           0        0.108709    0.016809    2.326108
     19          8           0       -1.094846   -3.160240   -0.295485
     20          1           0        0.714769    3.486712   -1.847762
     21          1           0        0.153074    3.441410   -0.174715
     22          1           0        1.732280    4.149749   -0.556426
     23          1           0        0.037106    0.924201   -1.502172
     24          1           0        4.426305    0.473349    0.702749
     25          1           0        3.469943    2.716578    0.326777
     26          1           0        2.717195   -2.547438    0.799485
     27          1           0        3.516154   -2.534788   -0.773414
     28          1           0        4.331128   -1.850476    0.637323
     29          1           0        0.030569   -1.452082   -1.977540
     30          1           0        1.266468   -2.527059   -1.321100
     31          1           0        0.283414   -2.241046    0.961634
     32          1           0       -2.639389   -1.445950   -1.197876
     33          1           0       -4.852826    1.640120   -0.770515
     34          1           0       -4.200795    0.679767   -2.122099
     35          1           0       -5.181185   -0.104398   -0.879635
     36          1           0       -0.015766    0.817213    3.057986
     37          1           0        0.126847   -0.944588    2.853485
     38          1           0        1.075744    0.142670    1.830497
     39          1           0       -0.482782   -3.849554   -0.596570
 ---------------------------------------------------------------------

 SCF Done:  E(UB3LYP) =  -806.751871455     A.U. after   33 cycles
 SCF Done:  E(UB3LYP) =  -806.752376078     a.u. after    5 cycles

 The electronic state is 2-A.
 Alpha  occ. eigenvalues --  -19.01501 -14.19149 -14.18950 -10.11955 -10.08456
 Alpha  occ. eigenvalues --  -10.08452 -10.08168 -10.08153 -10.07674 -10.07291
 Alpha  occ. eigenvalues --  -10.07260 -10.07235 -10.07214 -10.06763 -10.06412
 Alpha  occ. eigenvalues --  -10.06006 -10.05630 -10.04915 -10.04501  -0.91874
 Alpha  occ. eigenvalues --   -0.87143  -0.76610  -0.71416  -0.70392  -0.69197
 Alpha  occ. eigenvalues --   -0.66804  -0.62708  -0.62371  -0.60668  -0.57647
 Alpha  occ. eigenvalues --   -0.56094  -0.54675  -0.50231  -0.49574  -0.47306
 Alpha  occ. eigenvalues --   -0.45555  -0.42065  -0.39221  -0.38630  -0.37117
 Alpha  occ. eigenvalues --   -0.36239  -0.35186  -0.33896  -0.32715  -0.32415
 Alpha  occ. eigenvalues --   -0.32116  -0.32023  -0.30870  -0.30794  -0.30346
 Alpha  occ. eigenvalues --   -0.30152  -0.29151  -0.28750  -0.28378  -0.27612
 Alpha  occ. eigenvalues --   -0.27004  -0.26384  -0.25745  -0.24506  -0.23791
 Alpha  occ. eigenvalues --   -0.23582  -0.22284  -0.18109  -0.17358  -0.16090
 Alpha  occ. eigenvalues --   -0.15034  -0.14159  -0.13353  -0.09689   0.04226
 Alpha virt. eigenvalues --    0.05975   0.06923   0.07544   0.07991   0.08377
 Alpha virt. eigenvalues --    0.08493   0.09120   0.09715   0.10056   0.10473
 Alpha virt. eigenvalues --    0.10561   0.11254   0.11476   0.12217   0.12836

  Beta  occ. eigenvalues --  -19.01457 -14.18890 -14.18658 -10.11951 -10.08519
  Beta  occ. eigenvalues --  -10.08518 -10.08173 -10.08153 -10.07645 -10.07276
  Beta  occ. eigenvalues --  -10.07239 -10.07212 -10.07211 -10.06725 -10.06383
  Beta  occ. eigenvalues --  -10.05999 -10.05454 -10.04911 -10.04303  -0.91762
  Beta  occ. eigenvalues --   -0.86670  -0.76562  -0.71201  -0.70169  -0.69061
  Beta  occ. eigenvalues --   -0.66679  -0.62669  -0.62328  -0.60554  -0.57433
  Beta  occ. eigenvalues --   -0.56034  -0.54482  -0.50088  -0.49379  -0.47238
  Beta  occ. eigenvalues --   -0.45457  -0.41939  -0.39189  -0.38584  -0.36956
  Beta  occ. eigenvalues --   -0.36159  -0.35115  -0.33753  -0.32626  -0.32302
  Beta  occ. eigenvalues --   -0.32035  -0.31978  -0.30840  -0.30740  -0.30304
  Beta  occ. eigenvalues --   -0.30124  -0.29083  -0.28675  -0.28341  -0.27565
  Beta  occ. eigenvalues --   -0.26947  -0.25701  -0.25647  -0.24356  -0.23745
  Beta  occ. eigenvalues --   -0.23499  -0.22191  -0.17847  -0.17067  -0.14846
  Beta  occ. eigenvalues --   -0.14778  -0.13800  -0.12978  -0.09309
  Beta virt. eigenvalues --    0.06527   0.07264   0.07554   0.08130   0.08518
  Beta virt. eigenvalues --    0.08535   0.09081   0.09384   0.09823   0.10080
  Beta virt. eigenvalues --    0.10565   0.10809   0.11337   0.11567   0.12243

 Mulliken charges and spin densities:
               1          2
     1  C   -0.575317  -0.130350
     2  C    0.616258  -0.369694
     3  C   -0.448440   0.086362
     4  C    0.032462   0.540183
     5  C   -0.922925   1.126703
     6  C    0.013887  -0.326390
     7  C   -0.296102  -0.055225
     8  C    1.303517  -1.862813
     9  C   -0.944763   0.605575
    10  C   -0.081433  -0.832825
    11  C    1.082600  -0.077507
    12  C   -1.092033   0.350079
    13  N   -0.044933   0.130940
    14  N    0.002536   0.113331
    15  C   -0.319221  -0.117061
    16  C    0.454222   0.116502
    17  C   -0.626846  -0.016552
    18  C   -0.315651  -0.310227
    19  O   -0.159922   0.022719
    20  H    0.106496   0.035481
    21  H    0.175471   0.014032
    22  H    0.130158  -0.013973
    23  H    0.223270   0.011792
    24  H    0.025596   0.107999
    25  H    0.084615   0.052853
    26  H   -0.237757   0.392644
    27  H   -0.059967   0.230823
    28  H   -0.019804   0.161441
    29  H   -0.119323   0.312301
    30  H   -0.200105   0.328468
    31  H    0.376799  -0.123697
    32  H    0.192822   0.006651
    33  H    0.146837   0.000510
    34  H    0.082398   0.057178
    35  H    0.138129  -0.000491
    36  H    0.167183  -0.001578
    37  H    0.061852   0.072631
    38  H    0.300616  -0.137745
    39  H   -0.253181   0.498931
 Sum of Mulliken charges =  -1.00000   1.00000

 Dipole moment (field-independent basis, Debye):
    X=              2.5833    Y=              3.7460    Z=             -0.9329  Tot=              4.6450
 Quadrupole moment (field-independent basis, Debye-Ang):
   XX=           -160.9403   YY=           -166.5679   ZZ=           -137.6262
   XY=             11.9336   XZ=              9.3918   YZ=             -8.8658

 Summary of Natural Population Analysis:

                                       Natural Population
                Natural  -----------------------------------------------
    Atom  No    Charge         Core      Valence    Rydberg      Total
 -----------------------------------------------------------------------
      C    1   -0.29335      0.99964     2.28870    0.00502     3.29335
      C    2   -0.01661      0.99951     2.00934    0.00777     3.01661
      C    3   -0.08855      0.99947     2.07941    0.00968     3.08855
      C    4   -0.00771      0.99946     1.99785    0.01039     3.00771
      C    5   -0.02353      0.99946     2.01430    0.00977     3.02353
      C    6   -0.09680      0.99952     2.08878    0.00850     3.09680
      C    7   -0.10555      0.99952     2.09699    0.00905     3.10555
      C    8   -0.29414      0.99964     2.28879    0.00571     3.29414
      C    9   -0.20275      0.99958     2.19191    0.01126     3.20275
      C   10    0.06386      0.99950     1.92271    0.01392     2.93614
      C   11    0.00435      0.99943     1.98427    0.01195     2.99565
      C   12    0.08185      0.99950     1.90387    0.01478     2.91815
      N   13   -0.10562      0.99968     2.58894    0.01700     3.60562
      N   14   -0.11063      0.99968     2.59495    0.01600     3.61063
      C   15    0.07299      0.99956     1.91481    0.01265     2.92701
      C   16   -0.06983      0.99945     2.06093    0.00945     3.06983
      C   17   -0.29530      0.99963     2.29062    0.00504     3.29530
      C   18   -0.30104      0.99962     2.29596    0.00546     3.30104
      O   19   -0.36846      0.99989     3.36225    0.00632     4.36846
      H   20    0.10080      0.00000     0.39816    0.00105     0.39920
      H   21    0.11341      0.00000     0.38534    0.00126     0.38659
      H   22    0.09607      0.00000     0.40309    0.00084     0.40393
      H   23    0.10449      0.00000     0.39393    0.00158     0.39551
      H   24    0.09470      0.00000     0.40411    0.00119     0.40530
      H   25    0.09529      0.00000     0.40375    0.00097     0.40471
      H   26    0.10447      0.00000     0.39436    0.00117     0.39553
      H   27    0.10469      0.00000     0.39429    0.00102     0.39531
      H   28    0.09986      0.00000     0.39928    0.00087     0.40014
      H   29    0.10666      0.00000     0.39207    0.00127     0.39334
      H   30    0.10096      0.00000     0.39760    0.00144     0.39904
      H   31    0.08169      0.00000     0.41598    0.00233     0.41831
      H   32    0.10532      0.00000     0.39344    0.00124     0.39468
      H   33    0.10678      0.00000     0.39179    0.00143     0.39322
      H   34    0.09832      0.00000     0.40051    0.00117     0.40168
      H   35    0.09826      0.00000     0.40064    0.00110     0.40174
      H   36    0.10846      0.00000     0.39025    0.00129     0.39154
      H   37    0.09724      0.00000     0.40173    0.00103     0.40276
      H   38    0.10773      0.00000     0.39069    0.00157     0.39227
      H   39    0.23163      0.00000     0.26141    0.00695     0.26837
 =======================================================================
   * Total *   -0.00000     18.99174    49.78778    0.22048    69.00000

 Normal termination of Gaussian 16 at Sun Dec 13 23:21:18 2020.
