 Gaussian 16, Revision A.03,

 -----------------------------------------------------------
 # opt freq B3LYP/6-31G(d) empiricaldispersion=gd3bj scf=xqc
 -----------------------------------------------------------

 ------------------------------
 CID_88838631_JID_8298_neutraal
 ------------------------------
 Symbolic Z-matrix:
 Charge =  0 Multiplicity = 1

 SCF Done:  E(RB3LYP) =  -1160.58816897     A.U. after   15 cycles
 SCF Done:  E(RB3LYP) =  -1160.59611702     A.U. after   13 cycles
 SCF Done:  E(RB3LYP) =  -1160.59693732     A.U. after   12 cycles
 SCF Done:  E(RB3LYP) =  -1160.59715751     A.U. after   12 cycles
 SCF Done:  E(RB3LYP) =  -1160.59728480     A.U. after   12 cycles
 SCF Done:  E(RB3LYP) =  -1160.59733974     A.U. after   11 cycles
 SCF Done:  E(RB3LYP) =  -1160.59738509     A.U. after   12 cycles
 SCF Done:  E(RB3LYP) =  -1160.59739460     A.U. after    9 cycles
 SCF Done:  E(RB3LYP) =  -1160.59739834     A.U. after    8 cycles
 SCF Done:  E(RB3LYP) =  -1160.59740141     A.U. after    9 cycles
 SCF Done:  E(RB3LYP) =  -1160.59740288     A.U. after    8 cycles
 SCF Done:  E(RB3LYP) =  -1160.59740344     A.U. after    8 cycles
 SCF Done:  E(RB3LYP) =  -1160.59740387     A.U. after    8 cycles
 SCF Done:  E(RB3LYP) =  -1160.59740409     A.U. after    8 cycles
 Optimization completed.
    -- Stationary point found.
 Normal termination of Gaussian 16 at Fri Dec 11 19:53:28 2020.

 --------------------------------------------------------------------
 #N Geom=AllCheck Guess=TCheck SCRF=Check GenChk RB3LYP/6-31G(d) Freq
 --------------------------------------------------------------------

 Structure from the checkpoint file:  "JID_8298.chk"
 ------------------------------
 CID_88838631_JID_8298_neutraal
 ------------------------------
 Charge =  0 Multiplicity = 1

 SCF Done:  E(RB3LYP) =  -1160.59740409     A.U. after    1 cycles

  Exact polarizability: 250.821   3.377 160.559  11.168  -7.606 116.250
 Approx polarizability: 310.196  -2.212 277.744  20.334 -24.727 180.877

                      1                      2                      3
                      A                      A                      A
 Frequencies --     18.0147                31.3854                41.7851
 Red. masses --      4.6866                 4.3875                 3.9752
 Frc consts  --      0.0009                 0.0025                 0.0041
 IR Inten    --      0.1312                 0.5573                 2.4807

                      4                      5                      6
                      A                      A                      A
 Frequencies --     60.2907                71.6648                79.7847
 Red. masses --      3.1921                 5.9420                 4.7437
 Frc consts  --      0.0068                 0.0180                 0.0178
 IR Inten    --      0.4284                 2.6310                 4.7324

                      7                      8                      9
                      A                      A                      A
 Frequencies --    107.1905               138.1624               150.5596
 Red. masses --      2.9871                 2.4664                 1.6759
 Frc consts  --      0.0202                 0.0277                 0.0224
 IR Inten    --      7.5689                 1.8216                 1.5922

                     10                     11                     12
                      A                      A                      A
 Frequencies --    154.9381               166.6480               194.6978
 Red. masses --      1.9425                 2.1391                 2.6072
 Frc consts  --      0.0275                 0.0350                 0.0582
 IR Inten    --      4.4196                 1.2403                 1.4311

                     13                     14                     15
                      A                      A                      A
 Frequencies --    209.3593               213.5524               219.9991
 Red. masses --      2.3302                 2.5324                 1.8178
 Frc consts  --      0.0602                 0.0680                 0.0518
 IR Inten    --      5.4149                 4.8235                 1.2393

                     16                     17                     18
                      A                      A                      A
 Frequencies --    284.0629               300.4984               306.2330
 Red. masses --      3.9467                 3.3124                 2.7225
 Frc consts  --      0.1876                 0.1762                 0.1504
 IR Inten    --      0.8341                12.0712                 0.4584

                     19                     20                     21
                      A                      A                      A
 Frequencies --    327.8039               339.8796               391.2419
 Red. masses --      3.1047                 3.9525                 5.1688
 Frc consts  --      0.1966                 0.2690                 0.4662
 IR Inten    --     12.0995                 0.0670                 0.9145

                     22                     23                     24
                      A                      A                      A
 Frequencies --    425.6466               480.4930               523.9378
 Red. masses --      3.6588                 2.8275                 3.0748
 Frc consts  --      0.3906                 0.3846                 0.4973
 IR Inten    --      2.0756                 0.6271                 1.4294

                     25                     26                     27
                      A                      A                      A
 Frequencies --    539.2194               583.2102               615.9617
 Red. masses --      4.3305                 6.4426                 7.5930
 Frc consts  --      0.7419                 1.2911                 1.6973
 IR Inten    --      9.2776                 6.9548                 2.0763

                     28                     29                     30
                      A                      A                      A
 Frequencies --    626.0156               647.0579               681.4104
 Red. masses --      5.1854                 5.9789                 3.8696
 Frc consts  --      1.1973                 1.4749                 1.0586
 IR Inten    --      1.0100                 2.9579                 5.2519

                     31                     32                     33
                      A                      A                      A
 Frequencies --    732.7896               737.4581               771.9228
 Red. masses --      8.8762                10.5103                 2.6197
 Frc consts  --      2.8082                 3.3678                 0.9197
 IR Inten    --     32.3867                16.3315                15.4805

                     34                     35                     36
                      A                      A                      A
 Frequencies --    784.2515               812.2489               856.5690
 Red. masses --      2.2185                 1.7066                 1.7792
 Frc consts  --      0.8039                 0.6634                 0.7691
 IR Inten    --      1.9526                 1.5993                 1.9611

                     37                     38                     39
                      A                      A                      A
 Frequencies --    872.8185               915.3547               925.3945
 Red. masses --      2.5568                 1.7469                 3.0121
 Frc consts  --      1.1476                 0.8624                 1.5198
 IR Inten    --      0.1519                 4.5910                24.0967

                     40                     41                     42
                      A                      A                      A
 Frequencies --    985.6713               995.2879              1007.5728
 Red. masses --      1.9138                 2.2114                 1.5270
 Frc consts  --      1.0955                 1.2907                 0.9133
 IR Inten    --     12.8095                 0.9720                 1.4923

                     43                     44                     45
                      A                      A                      A
 Frequencies --   1037.0785              1039.5542              1069.3757
 Red. masses --      1.1251                 2.3832                 2.7884
 Frc consts  --      0.7130                 1.5174                 1.8787
 IR Inten    --     22.5631                10.8898                 3.7338

                     46                     47                     48
                      A                      A                      A
 Frequencies --   1079.8500              1103.8205              1116.4393
 Red. masses --      1.5263                 2.9877                 4.3153
 Frc consts  --      1.0486                 2.1448                 3.1691
 IR Inten    --      0.0770                 2.5446                 1.4788

                     49                     50                     51
                      A                      A                      A
 Frequencies --   1125.4892              1132.9108              1142.9026
 Red. masses --      2.9462                 1.5541                 1.8324
 Frc consts  --      2.1988                 1.1752                 1.4103
 IR Inten    --     73.8009                 8.1544                 5.5737

                     52                     53                     54
                      A                      A                      A
 Frequencies --   1158.5931              1175.2140              1204.3076
 Red. masses --      2.1246                 1.4010                 2.0992
 Frc consts  --      1.6803                 1.1400                 1.7938
 IR Inten    --     31.6345                 7.4075                 8.3580

                     55                     56                     57
                      A                      A                      A
 Frequencies --   1219.6979              1236.2977              1248.0959
 Red. masses --      1.3426                 1.2015                 1.6621
 Frc consts  --      1.1768                 1.0820                 1.5254
 IR Inten    --      1.2855                14.0462                 7.2739

                     58                     59                     60
                      A                      A                      A
 Frequencies --   1279.8762              1297.7732              1304.7235
 Red. masses --      1.7616                 3.0345                 1.2632
 Frc consts  --      1.7001                 3.0112                 1.2670
 IR Inten    --     33.8151               143.3713                 2.3861

                     61                     62                     63
                      A                      A                      A
 Frequencies --   1325.0798              1341.9279              1357.3366
 Red. masses --      1.9494                 1.2590                 1.2518
 Frc consts  --      2.0167                 1.3357                 1.3588
 IR Inten    --    117.3367                 0.1853                11.4197

                     64                     65                     66
                      A                      A                      A
 Frequencies --   1362.5853              1375.7812              1396.2043
 Red. masses --      1.4225                 4.5463                 1.4487
 Frc consts  --      1.5560                 5.0700                 1.6639
 IR Inten    --      3.3689                38.1952                11.3574

                     67                     68                     69
                      A                      A                      A
 Frequencies --   1403.1774              1411.2530              1442.2313
 Red. masses --      1.3843                 1.9661                 1.2657
 Frc consts  --      1.6059                 2.3071                 1.5511
 IR Inten    --     22.5409                38.4214                 3.3198

                     70                     71                     72
                      A                      A                      A
 Frequencies --   1458.0224              1478.5566              1506.4103
 Red. masses --      1.7547                 1.4533                 1.0962
 Frc consts  --      2.1977                 1.8719                 1.4656
 IR Inten    --    288.3893               178.1701                 4.8559

                     73                     74                     75
                      A                      A                      A
 Frequencies --   1510.8677              1513.0305              1517.1503
 Red. masses --      1.0468                 1.1156                 1.1239
 Frc consts  --      1.4079                 1.5047                 1.5242
 IR Inten    --      6.1326                11.2750                 2.3385

                     76                     77                     78
                      A                      A                      A
 Frequencies --   1519.7928              1523.4384              1538.5736
 Red. masses --      1.0457                 1.0580                 1.0786
 Frc consts  --      1.4230                 1.4467                 1.5044
 IR Inten    --     15.7503                 9.8746                 9.0860

                     79                     80                     81
                      A                      A                      A
 Frequencies --   1548.4499              1553.7392              1565.1931
 Red. masses --      2.5676                 1.4896                 1.1753
 Frc consts  --      3.6273                 2.1187                 1.6965
 IR Inten    --    184.5552                 0.6120                22.4545

                     82                     83                     84
                      A                      A                      A
 Frequencies --   1573.1572              1761.3688              1820.0872
 Red. masses --      9.4863                 5.7427                11.3660
 Frc consts  --     13.8322                10.4971                22.1841
 IR Inten    --    341.5221                 2.8554               325.6206

                     85                     86                     87
                      A                      A                      A
 Frequencies --   3012.3987              3023.7059              3028.7642
 Red. masses --      1.0712                 1.0490                 1.0379
 Frc consts  --      5.7274                 5.6508                 5.6096
 IR Inten    --     49.6096                98.0775                48.1327

                     88                     89                     90
                      A                      A                      A
 Frequencies --   3033.7010              3041.4356              3060.3204
 Red. masses --      1.0616                 1.0622                 1.0652
 Frc consts  --      5.7564                 5.7889                 5.8779
 IR Inten    --     18.7661                26.3738                25.2761

                     91                     92                     93
                      A                      A                      A
 Frequencies --   3071.8736              3073.2799              3074.8122
 Red. masses --      1.0696                 1.1000                 1.0999
 Frc consts  --      5.9467                 6.1214                 6.1270
 IR Inten    --     13.2454                27.1702                22.5850

                     94                     95                     96
                      A                      A                      A
 Frequencies --   3088.5131              3096.9265              3100.7583
 Red. masses --      1.1030                 1.0919                 1.0925
 Frc consts  --      6.1991                 6.1699                 6.1891
 IR Inten    --     62.1848                40.1113                33.4745

                     97                     98                     99
                      A                      A                      A
 Frequencies --   3113.8180              3120.5857              3131.7749
 Red. masses --      1.0957                 1.0983                 1.0930
 Frc consts  --      6.2593                 6.3015                 6.3164
 IR Inten    --      3.0164                15.4051                42.8410

                    100                    101                    102
                      A                      A                      A
 Frequencies --   3148.5796              3158.0848              3171.4421
 Red. masses --      1.0994                 1.0885                 1.0992
 Frc consts  --      6.4215                 6.3962                 6.5136
 IR Inten    --     10.0738                14.6890                 1.4548

 - Thermochemistry -
 -------------------
 Temperature   298.150 Kelvin.  Pressure   1.00000 Atm.
 Atom     1 has atomic number  6 and mass  12.00000

 Molecular mass:   266.12013 amu.
 Principal axes and moments of inertia in atomic units:
                           1         2         3
     Eigenvalues --  1971.30660********************
           X            1.00000   0.00176  -0.00107
           Y           -0.00176   1.00000   0.00049
           Z            0.00108  -0.00049   1.00000
 This molecule is an asymmetric top.
 Rotational symmetry number  1.
 Warning -- assumption of classical behavior for rotation
           may cause significant error
 Rotational temperatures (Kelvin)      0.04394     0.00757     0.00706
 Rotational constants (GHZ):           0.91551     0.15775     0.14716
 Zero-point vibrational energy     787467.2 (Joules/Mol)
                                  188.20918 (Kcal/Mol)
 Warning -- explicit consideration of  27 degrees of freedom as
           vibrations may cause significant error
 Vibrational temperatures:     25.92    45.16    60.12    86.74   103.11
          (Kelvin)            114.79   154.22   198.78   216.62   222.92
                              239.77   280.13   301.22   307.25   316.53
                              408.70   432.35   440.60   471.64   489.01
                              562.91   612.41   691.32   753.83   775.82
                              839.11   886.23   900.70   930.97   980.40
                             1054.32  1061.04  1110.62  1128.36  1168.64
                             1232.41  1255.79  1316.99  1331.44  1418.16
                             1432.00  1449.67  1492.12  1495.69  1538.59
                             1553.66  1588.15  1606.31  1619.33  1630.01
                             1644.38  1666.96  1690.87  1732.73  1754.87
                             1778.76  1795.73  1841.46  1867.21  1877.21
                             1906.49  1930.73  1952.90  1960.46  1979.44
                             2008.83  2018.86  2030.48  2075.05  2097.77
                             2127.31  2167.39  2173.80  2176.91  2182.84
                             2186.64  2191.89  2213.66  2227.87  2235.48
                             2251.96  2263.42  2534.22  2618.70  4334.17
                             4350.44  4357.72  4364.82  4375.95  4403.12
                             4419.74  4421.76  4423.97  4443.68  4455.79
                             4461.30  4480.09  4489.83  4505.93  4530.10
                             4543.78  4563.00

 Zero-point correction=                           0.299930 (Hartree/Particle)
 Thermal correction to Energy=                    0.318513
 Thermal correction to Enthalpy=                  0.319457
 Thermal correction to Gibbs Free Energy=         0.250681
 Sum of electronic and zero-point Energies=          -1160.297474
 Sum of electronic and thermal Energies=             -1160.278891
 Sum of electronic and thermal Enthalpies=           -1160.277947
 Sum of electronic and thermal Free Energies=        -1160.346723

                     E (Thermal)             CV                S
                      KCal/Mol        Cal/Mol-Kelvin    Cal/Mol-Kelvin
 Total                  199.870             67.261            144.751
 Electronic               0.000              0.000              0.000
 Translational            0.889              2.981             42.636
 Rotational               0.889              2.981             33.980
 Vibrational            198.093             61.300             68.135
 Vibration     1          0.593              1.986              6.842
 Vibration     2          0.594              1.983              5.740
 Vibration     3          0.594              1.980              5.173
 Vibration     4          0.597              1.973              4.448
 Vibration     5          0.598              1.968              4.107
 Vibration     6          0.600              1.963              3.896
 Vibration     7          0.606              1.943              3.319
 Vibration     8          0.614              1.915              2.829
 Vibration     9          0.618              1.902              2.665
 Vibration    10          0.620              1.897              2.611
 Vibration    11          0.624              1.883              2.473
 Vibration    12          0.635              1.847              2.183
 Vibration    13          0.642              1.826              2.049
 Vibration    14          0.644              1.820              2.013
 Vibration    15          0.647              1.811              1.959
 Vibration    16          0.682              1.703              1.509
 Vibration    17          0.693              1.673              1.414
 Vibration    18          0.697              1.662              1.383
 Vibration    19          0.711              1.620              1.271
 Vibration    20          0.720              1.596              1.213
 Vibration    21          0.759              1.489              0.995
 Vibration    22          0.787              1.414              0.873
 Vibration    23          0.837              1.293              0.709
 Vibration    24          0.879              1.197              0.601
 Vibration    25          0.894              1.163              0.567
 Vibration    26          0.940              1.068              0.479
 Vibration    27          0.976              0.998              0.423

                           ! Non-Optimized Parameters !
 Normal termination of Gaussian 16 at Fri Dec 11 20:05:47 2020.

 ----------------------------------------------------------------------
 # B3LYP/6-311++G(d,p) empiricaldispersion=gd3bj scf=xqc pop=npa geom=c
 heck
 ----------------------------------------------------------------------

 --------------------------------------
 CID_88838631_JID_8298_Energie_neutraal
 --------------------------------------
 Structure from the checkpoint file:  "JID_8298.chk"
 Charge =  0 Multiplicity = 1

 SCF Done:  E(RB3LYP) =  -1160.83038279     A.U. after   15 cycles
 Normal termination of Gaussian 16 at Fri Dec 11 20:10:58 2020.

 ----------------------------------------------------------------------
 # B3LYP/6-311++G(d,p) empiricaldispersion=gd3bj scf=xqc pop=npa geom=c
 heck
 ----------------------------------------------------------------------

 ------------------------------------
 CID_88838631_JID_8298_Energie_kation
 ------------------------------------
 Structure from the checkpoint file:  "JID_8298.chk"
 Charge =  1 Multiplicity = 2

 SCF Done:  E(UB3LYP) =  -1160.54182492     A.U. after   25 cycles
 Normal termination of Gaussian 16 at Fri Dec 11 20:22:39 2020.
 Gaussian 16:  ES64L-G16RevA.03 25-Dec-2016

 ----------------------------------------------------------------------
 # B3LYP/6-311++G(d,p) empiricaldispersion=gd3bj scf=xqc pop=npa geom=c
 heck
 ----------------------------------------------------------------------

 -----------------------------------
 CID_88838631_JID_8298_Energie_anion
 -----------------------------------
 Structure from the checkpoint file:  "JID_8298.chk"
 Charge = -1 Multiplicity = 2

                         Standard orientation:
 ---------------------------------------------------------------------
 Center     Atomic      Atomic             Coordinates (Angstroms)
 Number     Number       Type             X           Y           Z
 ---------------------------------------------------------------------
      1          6           0       -6.172424    1.889732    0.388712
      2          6           0       -5.354305    0.769412    0.962489
      3          6           0       -4.094789    0.487646    0.620677
      4          6           0       -3.288098   -0.647362    1.190072
      5          6           0       -3.090502   -1.816899    0.205062
      6          6           0       -2.485662   -1.398516   -1.150808
      7          6           0       -1.203758   -0.637843   -1.013625
      8          7           0       -1.097297    0.637067   -1.243001
      9          7           0        0.158587    1.138773   -0.992439
     10          6           0        0.979536    0.215764   -0.566300
     11         16           0        0.284385   -1.389447   -0.426056
     12          7           0        2.289843    0.503702   -0.280107
     13          6           0        2.798448    1.874035   -0.301230
     14          6           0        4.295007    1.655299   -0.005993
     15          7           0        4.311764    0.349759    0.638420
     16          6           0        3.182394   -0.376086    0.341990
     17          8           0        2.969741   -1.555712    0.572118
     18          6           0        5.547330   -0.307717    1.001116
     19          1           0       -5.604865    2.455079   -0.357932
     20          1           0       -6.496718    2.589620    1.170909
     21          1           0       -7.085473    1.512409   -0.091895
     22          1           0       -5.844810    0.153056    1.719210
     23          1           0       -3.594547    1.101402   -0.128807
     24          1           0       -2.300424   -0.274712    1.494657
     25          1           0       -3.772687   -1.034411    2.094900
     26          1           0       -2.448455   -2.574910    0.672600
     27          1           0       -4.058774   -2.293440    0.009589
     28          1           0       -2.329570   -2.290283   -1.769925
     29          1           0       -3.180761   -0.745765   -1.686782
     30          1           0        2.608339    2.340445   -1.268923
     31          1           0        2.301459    2.470618    0.471975
     32          1           0        4.703749    2.427939    0.652346
     33          1           0        4.891917    1.640459   -0.930800
     34          1           0        6.224170   -0.397122    0.138654
     35          1           0        6.057682    0.253060    1.791275
     36          1           0        5.302336   -1.306483    1.365814
 ---------------------------------------------------------------------

 SCF Done:  E(UB3LYP) =  -1160.82422904     A.U. after   33 cycles
 SCF Done:  E(UB3LYP) =  -1160.82422904     a.u. after    1 cycles

 The electronic state is 2-A.
 Alpha  occ. eigenvalues --  -88.78119 -19.00097 -14.27051 -14.25079 -14.23289
 Alpha  occ. eigenvalues --  -14.22637 -10.20574 -10.16726 -10.12778 -10.12687
 Alpha  occ. eigenvalues --  -10.12240 -10.10691 -10.09297 -10.09279 -10.08910
 Alpha  occ. eigenvalues --  -10.08908 -10.08603 -10.08246  -7.86719  -5.83002
 Alpha  occ. eigenvalues --   -5.82665  -5.82287  -0.97425  -0.92528  -0.88770
 Alpha  occ. eigenvalues --   -0.83779  -0.74492  -0.72165  -0.70686  -0.68484
 Alpha  occ. eigenvalues --   -0.66511  -0.63745  -0.62366  -0.58260  -0.56852
 Alpha  occ. eigenvalues --   -0.53450  -0.51030  -0.47129  -0.45871  -0.45076
 Alpha  occ. eigenvalues --   -0.42632  -0.41959  -0.39532  -0.38631  -0.37807
 Alpha  occ. eigenvalues --   -0.36215  -0.35652  -0.35598  -0.34517  -0.33977
 Alpha  occ. eigenvalues --   -0.33895  -0.33262  -0.32596  -0.31683  -0.31066
 Alpha  occ. eigenvalues --   -0.30254  -0.29376  -0.29126  -0.28479  -0.27917
 Alpha  occ. eigenvalues --   -0.27267  -0.25755  -0.24496  -0.21907  -0.20298
 Alpha  occ. eigenvalues --   -0.18832  -0.18815  -0.16789  -0.16353  -0.16175
 Alpha  occ. eigenvalues --   -0.13021   0.03795
 Alpha virt. eigenvalues --    0.05149   0.05901   0.06844   0.07436   0.07556
 Alpha virt. eigenvalues --    0.07998   0.08250   0.08714   0.09348   0.09554
 Alpha virt. eigenvalues --    0.09992   0.10643   0.10767   0.10998   0.11357

  Beta  occ. eigenvalues --  -88.78102 -19.00058 -14.27071 -14.25084 -14.23277
  Beta  occ. eigenvalues --  -14.22639 -10.20536 -10.16600 -10.12766 -10.12569
  Beta  occ. eigenvalues --  -10.12185 -10.10646 -10.09293 -10.09280 -10.08899
  Beta  occ. eigenvalues --  -10.08886 -10.08600 -10.08248  -7.86703  -5.82994
  Beta  occ. eigenvalues --   -5.82659  -5.82230  -0.97364  -0.92447  -0.88730
  Beta  occ. eigenvalues --   -0.83745  -0.74413  -0.72117  -0.70590  -0.68446
  Beta  occ. eigenvalues --   -0.66446  -0.63707  -0.62306  -0.58229  -0.56769
  Beta  occ. eigenvalues --   -0.53364  -0.50979  -0.47069  -0.45805  -0.45008
  Beta  occ. eigenvalues --   -0.42557  -0.41880  -0.39484  -0.38557  -0.37765
  Beta  occ. eigenvalues --   -0.36161  -0.35603  -0.35493  -0.34421  -0.33925
  Beta  occ. eigenvalues --   -0.33843  -0.33186  -0.32533  -0.31596  -0.30931
  Beta  occ. eigenvalues --   -0.30168  -0.29314  -0.29084  -0.28430  -0.27895
  Beta  occ. eigenvalues --   -0.27203  -0.25707  -0.24476  -0.21657  -0.20274
  Beta  occ. eigenvalues --   -0.18787  -0.18569  -0.16754  -0.16296  -0.16028
  Beta  occ. eigenvalues --   -0.12837
  Beta virt. eigenvalues --    0.05341   0.06289   0.06635   0.07214   0.07845
  Beta virt. eigenvalues --    0.08020   0.08336   0.08754   0.08993   0.09459
  Beta virt. eigenvalues --    0.09548   0.10067   0.10804   0.10936   0.11235

 Mulliken charges and spin densities:
               1          2
     1  C   -0.431411  -0.311881
     2  C   -0.043066  -0.193010
     3  C   -0.121291   0.208551
     4  C   -0.153642   0.167506
     5  C    0.068508  -0.530808
     6  C    0.183321  -0.323343
     7  C   -0.166717   0.096542
     8  N    0.073147   0.077187
     9  N   -0.161102  -0.058956
    10  C   -0.555567   0.078205
    11  S    0.166764   0.015263
    12  N   -0.029707   0.126630
    13  C   -1.029936   0.897489
    14  C    1.853862  -2.341265
    15  N   -0.329385   0.283881
    16  C   -0.235048   0.417607
    17  O   -0.370168   0.015184
    18  C    0.944586  -1.228919
    19  H    0.132958   0.013988
    20  H    0.098818   0.030325
    21  H    0.063526   0.070154
    22  H    0.014994   0.102029
    23  H    0.148720   0.026566
    24  H    0.105371   0.018074
    25  H    0.114813   0.075373
    26  H    0.096978   0.043847
    27  H   -0.092718   0.241603
    28  H   -0.090486   0.283612
    29  H    0.157133   0.013182
    30  H    0.049901   0.136772
    31  H    0.070945   0.144432
    32  H   -0.531622   0.714286
    33  H   -0.374529   0.568025
    34  H   -0.355351   0.514851
    35  H   -0.353950   0.510064
    36  H    0.081349   0.096954
 Sum of Mulliken charges =  -1.00000   1.00000

 Dipole moment (field-independent basis, Debye):
    X=             -8.4715    Y=             -1.4154    Z=              0.5506  Tot=              8.6066
 Quadrupole moment (field-independent basis, Debye-Ang):
   XX=           -234.4275   YY=           -154.9073   ZZ=           -143.6563
   XY=            -13.4698   XZ=             -6.4014   YZ=             -0.5036

 Summary of Natural Population Analysis:

                                       Natural Population
                Natural  -----------------------------------------------
    Atom  No    Charge         Core      Valence    Rydberg      Total
 -----------------------------------------------------------------------
      C    1   -0.29886      0.99966     2.29428    0.00493     3.29886
      C    2   -0.09604      0.99952     2.08812    0.00840     3.09604
      C    3   -0.09252      0.99951     2.08337    0.00964     3.09252
      C    4   -0.21008      0.99962     2.19972    0.01074     3.21008
      C    5   -0.18072      0.99962     2.17188    0.00922     3.18072
      C    6   -0.23237      0.99960     2.21655    0.01622     3.23237
      C    7    0.07816      0.99961     1.90729    0.01494     2.92184
      N    8   -0.16994      0.99964     2.65113    0.01918     3.66994
      N    9   -0.18234      0.99964     2.66851    0.01419     3.68234
      C   10    0.14274      0.99960     1.83744    0.02023     2.85726
      S   11    0.18630      4.99944     2.79418    0.02009     7.81370
      N   12   -0.25956      0.99958     2.74968    0.01030     3.75956
      C   13   -0.07912      0.99964     2.06820    0.01128     3.07912
      C   14   -0.07971      0.99963     2.06971    0.01038     3.07971
      N   15   -0.25819      0.99965     2.74718    0.01136     3.75819
      C   16    0.42086      0.99964     1.55554    0.02396     2.57914
      O   17   -0.32243      0.99987     3.31748    0.00508     4.32243
      C   18   -0.17571      0.99964     2.16765    0.00842     3.17571
      H   19    0.10178      0.00000     0.39718    0.00104     0.39822
      H   20    0.09815      0.00000     0.40057    0.00128     0.40185
      H   21    0.09857      0.00000     0.40003    0.00140     0.40143
      H   22    0.08634      0.00000     0.41235    0.00131     0.41366
      H   23    0.10195      0.00000     0.39639    0.00166     0.39805
      H   24    0.10570      0.00000     0.39301    0.00128     0.39430
      H   25    0.09832      0.00000     0.40072    0.00096     0.40168
      H   26    0.09758      0.00000     0.40137    0.00105     0.40242
      H   27    0.09718      0.00000     0.40141    0.00141     0.40282
      H   28    0.10818      0.00000     0.39050    0.00132     0.39182
      H   29    0.11215      0.00000     0.38634    0.00150     0.38785
      H   30    0.10736      0.00000     0.39100    0.00164     0.39264
      H   31    0.09839      0.00000     0.40019    0.00143     0.40161
      H   32    0.10288      0.00000     0.39385    0.00328     0.39712
      H   33    0.09370      0.00000     0.40316    0.00315     0.40630
      H   34    0.09379      0.00000     0.40414    0.00207     0.40621
      H   35    0.09749      0.00000     0.40102    0.00148     0.40251
      H   36    0.11039      0.00000     0.38856    0.00105     0.38961
 =======================================================================
   * Total *    0.00038     21.99309    48.74969    0.25684    70.99962

 Normal termination of Gaussian 16 at Fri Dec 11 20:37:55 2020.
