 Gaussian 16, Revision A.03,

 -----------------------------------------------------------
 # opt freq B3LYP/6-31G(d) empiricaldispersion=gd3bj scf=xqc
 -----------------------------------------------------------

 -------------------------------
 CID_112513117_JID_5445_neutraal
 -------------------------------
 Symbolic Z-matrix:
 Charge =  0 Multiplicity = 1

 SCF Done:  E(RB3LYP) =  -602.171583615     A.U. after   13 cycles
 SCF Done:  E(RB3LYP) =  -602.174099060     A.U. after   12 cycles
 SCF Done:  E(RB3LYP) =  -602.174387316     A.U. after   11 cycles
 SCF Done:  E(RB3LYP) =  -602.174513300     A.U. after   11 cycles
 SCF Done:  E(RB3LYP) =  -602.174571978     A.U. after   11 cycles
 SCF Done:  E(RB3LYP) =  -602.174637486     A.U. after   11 cycles
 SCF Done:  E(RB3LYP) =  -602.174652959     A.U. after   10 cycles
 SCF Done:  E(RB3LYP) =  -602.174658030     A.U. after   10 cycles
 SCF Done:  E(RB3LYP) =  -602.174659326     A.U. after    9 cycles
 SCF Done:  E(RB3LYP) =  -602.174659279     A.U. after    7 cycles
 Optimization completed.
    -- Stationary point found.
 Normal termination of Gaussian 16 at Thu Dec 10 16:08:20 2020.

 --------------------------------------------------------------------
 #N Geom=AllCheck Guess=TCheck SCRF=Check GenChk RB3LYP/6-31G(d) Freq
 --------------------------------------------------------------------

 Structure from the checkpoint file:  "JID_5445.chk"
 -------------------------------
 CID_112513117_JID_5445_neutraal
 -------------------------------
 Charge =  0 Multiplicity = 1

 SCF Done:  E(RB3LYP) =  -602.174659279     A.U. after    1 cycles

  Exact polarizability: 193.413  -3.913 142.184  20.076   3.307 120.846
 Approx polarizability: 237.928  -7.438 234.003  41.593   9.332 183.618

                      1                      2                      3
                      A                      A                      A
 Frequencies --     10.7846                31.3995                40.0591
 Red. masses --      3.6170                 3.2695                 3.9930
 Frc consts  --      0.0002                 0.0019                 0.0038
 IR Inten    --      0.1203                 0.3467                 0.1698

                      4                      5                      6
                      A                      A                      A
 Frequencies --     50.4267                72.1123                92.8907
 Red. masses --      3.0852                 3.4705                 2.5990
 Frc consts  --      0.0046                 0.0106                 0.0132
 IR Inten    --      0.4526                 0.5084                 0.0854

                      7                      8                      9
                      A                      A                      A
 Frequencies --    145.0905               152.9089               200.1780
 Red. masses --      2.4912                 2.0691                 2.9260
 Frc consts  --      0.0309                 0.0285                 0.0691
 IR Inten    --      0.2140                 0.3644                 0.0934

                     10                     11                     12
                      A                      A                      A
 Frequencies --    224.3743               256.5138               262.1049
 Red. masses --      1.5455                 1.3034                 1.2343
 Frc consts  --      0.0458                 0.0505                 0.0500
 IR Inten    --      1.0191                 3.2195                15.3895

                     13                     14                     15
                      A                      A                      A
 Frequencies --    288.8350               329.5771               335.1289
 Red. masses --      1.7387                 2.1154                 2.2238
 Frc consts  --      0.0855                 0.1354                 0.1472
 IR Inten    --     15.4397                 2.8833                 5.4074

                     16                     17                     18
                      A                      A                      A
 Frequencies --    370.3118               400.4464               405.1811
 Red. masses --      2.6837                 2.0200                 2.1885
 Frc consts  --      0.2168                 0.1909                 0.2117
 IR Inten    --      1.3099                 0.2365                 6.9417

                     19                     20                     21
                      A                      A                      A
 Frequencies --    419.5776               431.6089               444.7622
 Red. masses --      3.0272                 2.3666                 2.2818
 Frc consts  --      0.3140                 0.2597                 0.2659
 IR Inten    --      0.0309                 3.2618                 0.4931

                     22                     23                     24
                      A                      A                      A
 Frequencies --    486.0551               556.8677               580.3558
 Red. masses --      2.9064                 3.0561                 2.4410
 Frc consts  --      0.4046                 0.5584                 0.4844
 IR Inten    --      1.0255                 0.5849                17.2190

                     25                     26                     27
                      A                      A                      A
 Frequencies --    660.3976               707.9715               739.7753
 Red. masses --      6.5441                 2.3734                 2.5284
 Frc consts  --      1.6816                 0.7009                 0.8153
 IR Inten    --      0.0178                 6.7855                 0.2993

                     28                     29                     30
                      A                      A                      A
 Frequencies --    765.5838               781.2080               812.3220
 Red. masses --      1.4626                 2.2510                 2.2011
 Frc consts  --      0.5051                 0.8094                 0.8558
 IR Inten    --      4.5517                 2.6229                 6.7627

                     31                     32                     33
                      A                      A                      A
 Frequencies --    826.4208               847.1587               856.4945
 Red. masses --      2.9165                 1.7142                 1.2652
 Frc consts  --      1.1736                 0.7248                 0.5468
 IR Inten    --      1.9062                14.4794                 0.3438

                     34                     35                     36
                      A                      A                      A
 Frequencies --    902.4285               909.1060               917.5251
 Red. masses --      1.8082                 1.6115                 1.5097
 Frc consts  --      0.8676                 0.7847                 0.7488
 IR Inten    --     49.1595                51.2096                17.5675

                     37                     38                     39
                      A                      A                      A
 Frequencies --    934.7569               953.8360               962.1092
 Red. masses --      1.3677                 1.8028                 1.3916
 Frc consts  --      0.7041                 0.9664                 0.7589
 IR Inten    --     56.1473                 1.4400                 0.1279

                     40                     41                     42
                      A                      A                      A
 Frequencies --    967.8842               981.9285               991.4979
 Red. masses --      1.3579                 1.6493                 1.8073
 Frc consts  --      0.7495                 0.9369                 1.0468
 IR Inten    --      0.3960                 2.0155                 2.8455

                     43                     44                     45
                      A                      A                      A
 Frequencies --   1008.6684              1044.5428              1067.6883
 Red. masses --      1.8211                 2.7979                 1.8344
 Frc consts  --      1.0916                 1.7986                 1.2321
 IR Inten    --      1.4845                 2.4989                 2.6885

                     46                     47                     48
                      A                      A                      A
 Frequencies --   1076.4388              1093.1118              1112.5022
 Red. masses --      1.9812                 1.6034                 1.6204
 Frc consts  --      1.3525                 1.1288                 1.1816
 IR Inten    --      1.8960                 6.6727                 8.1547

                     49                     50                     51
                      A                      A                      A
 Frequencies --   1132.5365              1156.1139              1185.8742
 Red. masses --      1.8497                 1.4170                 1.4585
 Frc consts  --      1.3978                 1.1159                 1.2085
 IR Inten    --      1.8618                 1.7411                 9.2683

                     52                     53                     54
                      A                      A                      A
 Frequencies --   1196.0952              1215.4152              1220.4976
 Red. masses --      1.7883                 1.4015                 1.1484
 Frc consts  --      1.5074                 1.2198                 1.0079
 IR Inten    --     14.9002                 0.3583                 0.2736

                     55                     56                     57
                      A                      A                      A
 Frequencies --   1228.2679              1237.3765              1242.6001
 Red. masses --      1.4175                 2.9407                 1.9726
 Frc consts  --      1.2599                 2.6528                 1.7945
 IR Inten    --      3.9999                 1.0815                 2.8087

                     58                     59                     60
                      A                      A                      A
 Frequencies --   1275.5693              1313.2778              1333.4787
 Red. masses --      1.3266                 1.3617                 1.1855
 Frc consts  --      1.2718                 1.3838                 1.2420
 IR Inten    --      0.4159                 1.7315                 2.2178

                     61                     62                     63
                      A                      A                      A
 Frequencies --   1350.6307              1356.9990              1377.1686
 Red. masses --      1.6434                 2.0367                 1.3834
 Frc consts  --      1.7664                 2.2098                 1.5459
 IR Inten    --      0.8778                 1.3967                 9.4962

                     64                     65                     66
                      A                      A                      A
 Frequencies --   1379.8694              1386.5200              1399.0959
 Red. masses --      1.5659                 1.5161                 1.3427
 Frc consts  --      1.7566                 1.7172                 1.5485
 IR Inten    --      3.4563                 1.0029                 9.0510

                     67                     68                     69
                      A                      A                      A
 Frequencies --   1401.9887              1410.6121              1430.4375
 Red. masses --      1.3007                 1.4609                 1.3270
 Frc consts  --      1.5063                 1.7127                 1.5997
 IR Inten    --     11.2868                 5.4306                 7.8529

                     70                     71                     72
                      A                      A                      A
 Frequencies --   1440.2366              1441.9534              1469.8430
 Red. masses --      1.3514                 1.2646                 2.4871
 Frc consts  --      1.6516                 1.5492                 3.1658
 IR Inten    --      7.5174                 8.6184                 6.3800

                     73                     74                     75
                      A                      A                      A
 Frequencies --   1510.2818              1510.6206              1520.1833
 Red. masses --      1.0744                 1.0786                 1.0644
 Frc consts  --      1.4438                 1.4502                 1.4493
 IR Inten    --      1.6253                 1.8710                 1.2766

                     76                     77                     78
                      A                      A                      A
 Frequencies --   1521.1379              1523.7638              1526.2347
 Red. masses --      1.0843                 1.0938                 1.0804
 Frc consts  --      1.4782                 1.4963                 1.4828
 IR Inten    --      5.9619                 3.4344                 1.3734

                     79                     80                     81
                      A                      A                      A
 Frequencies --   1532.8403              1537.1823              1540.2574
 Red. masses --      1.0656                 1.0650                 1.0629
 Frc consts  --      1.4751                 1.4827                 1.4857
 IR Inten    --      7.6111                 3.9776                 2.5349

                     82                     83                     84
                      A                      A                      A
 Frequencies --   1566.8822              1633.3338              1678.4458
 Red. masses --      2.4963                 6.0248                 5.8779
 Frc consts  --      3.6110                 9.4698                 9.7564
 IR Inten    --     17.6162                 0.3740                 0.0045

                     85                     86                     87
                      A                      A                      A
 Frequencies --   1695.8508              3018.8774              3027.2812
 Red. masses --      1.0904                 1.0680                 1.0615
 Frc consts  --      1.8476                 5.7349                 5.7319
 IR Inten    --     21.8332                32.1482                23.5931

                     88                     89                     90
                      A                      A                      A
 Frequencies --   3033.2654              3040.4836              3043.3141
 Red. masses --      1.0393                 1.0621                 1.0646
 Frc consts  --      5.6341                 5.7847                 5.8095
 IR Inten    --     19.6467                32.6695                50.2178

                     91                     92                     93
                      A                      A                      A
 Frequencies --   3044.0266              3047.6272              3056.2648
 Red. masses --      1.0446                 1.0573                 1.0818
 Frc consts  --      5.7027                 5.7861                 5.9536
 IR Inten    --     27.2776                30.8970                27.2030

                     94                     95                     96
                      A                      A                      A
 Frequencies --   3064.5479              3077.1550              3077.7465
 Red. masses --      1.1010                 1.0977                 1.1001
 Frc consts  --      6.0921                 6.1242                 6.1398
 IR Inten    --     23.7716                 2.3378                24.5147

                     97                     98                     99
                      A                      A                      A
 Frequencies --   3089.7262              3095.9386              3100.2225
 Red. masses --      1.1000                 1.0971                 1.1000
 Frc consts  --      6.1871                 6.1957                 6.2289
 IR Inten    --     54.6268                45.1904                51.1362

                    100                    101                    102
                      A                      A                      A
 Frequencies --   3109.4237              3115.4034              3118.0921
 Red. masses --      1.1011                 1.0994                 1.1014
 Frc consts  --      6.2727                 6.2870                 6.3091
 IR Inten    --     50.4234                51.3006                56.7712

                    103                    104                    105
                      A                      A                      A
 Frequencies --   3169.1416              3171.1123              3186.5421
 Red. masses --      1.0864                 1.0864                 1.0937
 Frc consts  --      6.4284                 6.4369                 6.5433
 IR Inten    --     19.0506                13.1159                44.1852

                    106                    107                    108
                      A                      A                      A
 Frequencies --   3190.0483              3438.8365              3525.2795
 Red. masses --      1.0943                 1.0498                 1.0911
 Frc consts  --      6.5612                 7.3147                 7.9891
 IR Inten    --      2.9370                 5.9010                 1.6314

 - Thermochemistry -
 -------------------
 Temperature   298.150 Kelvin.  Pressure   1.00000 Atm.
 Atom     1 has atomic number  6 and mass  12.00000

 Molecular mass:   205.18305 amu.
 Principal axes and moments of inertia in atomic units:
                           1         2         3
     Eigenvalues --  1278.958557749.853797936.73626
           X            1.00000  -0.00149   0.00056
           Y            0.00146   0.99901   0.04449
           Z           -0.00063  -0.04449   0.99901
 This molecule is an asymmetric top.
 Rotational symmetry number  1.
 Warning -- assumption of classical behavior for rotation
           may cause significant error
 Rotational temperatures (Kelvin)      0.06772     0.01118     0.01091
 Rotational constants (GHZ):           1.41110     0.23287     0.22739
 Zero-point vibrational energy     910530.0 (Joules/Mol)
                                  217.62190 (Kcal/Mol)
 Warning -- explicit consideration of  24 degrees of freedom as
           vibrations may cause significant error
 Vibrational temperatures:     15.52    45.18    57.64    72.55   103.75
          (Kelvin)            133.65   208.75   220.00   288.01   322.82
                              369.07   377.11   415.57   474.19   482.18
                              532.80   576.15   582.97   603.68   620.99
                              639.91   699.32   801.21   835.00   950.16
                             1018.61  1064.37  1101.50  1123.98  1168.75
                             1189.04  1218.87  1232.30  1298.39  1308.00
                             1320.11  1344.91  1372.36  1384.26  1392.57
                             1412.78  1426.54  1451.25  1502.86  1536.17
                             1548.76  1572.74  1600.64  1629.47  1663.39
                             1706.21  1720.91  1748.71  1756.02  1767.20
                             1780.31  1787.82  1835.26  1889.51  1918.58
                             1943.26  1952.42  1981.44  1985.32  1994.89
                             2012.99  2017.15  2029.56  2058.08  2072.18
                             2074.65  2114.78  2172.96  2173.45  2187.20
                             2188.58  2192.36  2195.91  2205.42  2211.66
                             2216.09  2254.39  2350.00  2414.91  2439.95
                             4343.49  4355.58  4364.19  4374.58  4378.65
                             4379.68  4384.86  4397.28  4409.20  4427.34
                             4428.19  4445.43  4454.37  4460.53  4473.77
                             4482.37  4486.24  4559.69  4562.52  4584.72
                             4589.77  4947.72  5072.09

 Zero-point correction=                           0.346803 (Hartree/Particle)
 Thermal correction to Energy=                    0.363248
 Thermal correction to Enthalpy=                  0.364192
 Thermal correction to Gibbs Free Energy=         0.300382
 Sum of electronic and zero-point Energies=           -601.827857
 Sum of electronic and thermal Energies=              -601.811412
 Sum of electronic and thermal Enthalpies=            -601.810467
 Sum of electronic and thermal Free Energies=         -601.874277

                     E (Thermal)             CV                S
                      KCal/Mol        Cal/Mol-Kelvin    Cal/Mol-Kelvin
 Total                  227.941             62.233            134.299
 Electronic               0.000              0.000              0.000
 Translational            0.889              2.981             41.860
 Rotational               0.889              2.981             32.731
 Vibrational            226.164             56.271             59.708
 Vibration     1          0.593              1.987              7.861
 Vibration     2          0.594              1.983              5.739
 Vibration     3          0.594              1.981              5.256
 Vibration     4          0.595              1.977              4.801
 Vibration     5          0.598              1.967              4.095
 Vibration     6          0.602              1.954              3.598
 Vibration     7          0.616              1.908              2.736
 Vibration     8          0.619              1.899              2.636
 Vibration     9          0.638              1.840              2.131
 Vibration    10          0.649              1.804              1.924
 Vibration    11          0.666              1.752              1.685
 Vibration    12          0.669              1.742              1.648
 Vibration    13          0.685              1.694              1.481
 Vibration    14          0.712              1.616              1.262
 Vibration    15          0.716              1.605              1.235
 Vibration    16          0.742              1.533              1.078
 Vibration    17          0.766              1.469              0.961
 Vibration    18          0.770              1.459              0.944
 Vibration    19          0.782              1.428              0.893
 Vibration    20          0.793              1.401              0.853
 Vibration    21          0.804              1.372              0.812
 Vibration    22          0.842              1.281              0.694
 Vibration    23          0.912              1.125              0.530
 Vibration    24          0.937              1.074              0.485

                           ! Non-Optimized Parameters !
 Normal termination of Gaussian 16 at Thu Dec 10 16:21:20 2020.

 ----------------------------------------------------------------------
 # B3LYP/6-311++G(d,p) empiricaldispersion=gd3bj scf=xqc pop=npa geom=c
 heck
 ----------------------------------------------------------------------

 ---------------------------------------
 CID_112513117_JID_5445_Energie_neutraal
 ---------------------------------------
 Structure from the checkpoint file:  "JID_5445.chk"
 Charge =  0 Multiplicity = 1

 SCF Done:  E(RB3LYP) =  -602.343566746     A.U. after   14 cycles
 Normal termination of Gaussian 16 at Thu Dec 10 16:28:10 2020.

 ----------------------------------------------------------------------
 # B3LYP/6-311++G(d,p) empiricaldispersion=gd3bj scf=xqc pop=npa geom=c
 heck
 ----------------------------------------------------------------------

 -------------------------------------
 CID_112513117_JID_5445_Energie_kation
 -------------------------------------
 Structure from the checkpoint file:  "JID_5445.chk"
 Charge =  1 Multiplicity = 2

 SCF Done:  E(UB3LYP) =  -602.046990193     A.U. after   24 cycles
 Normal termination of Gaussian 16 at Thu Dec 10 16:45:08 2020.
 Gaussian 16:  ES64L-G16RevA.03 25-Dec-2016

 ----------------------------------------------------------------------
 # B3LYP/6-311++G(d,p) empiricaldispersion=gd3bj scf=xqc pop=npa geom=c
 heck
 ----------------------------------------------------------------------

 ------------------------------------
 CID_112513117_JID_5445_Energie_anion
 ------------------------------------
 Structure from the checkpoint file:  "JID_5445.chk"
 Charge = -1 Multiplicity = 2

                         Standard orientation:
 ---------------------------------------------------------------------
 Center     Atomic      Atomic             Coordinates (Angstroms)
 Number     Number       Type             X           Y           Z
 ---------------------------------------------------------------------
      1          6           0        4.789627    1.478764   -0.023840
      2          6           0        4.334201    0.179743   -0.694964
      3          6           0        4.035091   -0.959285    0.288711
      4          6           0        2.865041   -0.683188    1.256690
      5          6           0        1.556661   -0.429087    0.544033
      6          6           0        1.011315    0.854086    0.450514
      7          6           0       -0.177786    1.082947   -0.244083
      8          6           0       -0.862939    0.036824   -0.867740
      9          6           0       -0.315946   -1.251019   -0.774089
     10          6           0        0.869479   -1.478604   -0.082634
     11          6           0       -2.168776    0.270862   -1.594164
     12          6           0       -3.376116   -0.398713   -0.910250
     13          6           0       -3.611290    0.014989    0.547959
     14          6           0       -3.865779    1.521660    0.700588
     15          7           0       -4.695578   -0.824155    1.084766
     16          1           0        4.002667    1.907662    0.605950
     17          1           0        5.059040    2.234440   -0.770035
     18          1           0        5.667308    1.308743    0.612430
     19          1           0        3.441770    0.374969   -1.302594
     20          1           0        5.113955   -0.157635   -1.390238
     21          1           0        3.809351   -1.870559   -0.280661
     22          1           0        4.935224   -1.176654    0.880662
     23          1           0        2.758742   -1.546975    1.925703
     24          1           0        3.106927    0.173698    1.895798
     25          1           0        1.521499    1.686958    0.928490
     26          1           0       -0.577406    2.092640   -0.303555
     27          1           0       -0.829357   -2.085094   -1.246916
     28          1           0        1.271044   -2.487993   -0.024660
     29          1           0       -2.342871    1.348538   -1.690812
     30          1           0       -2.096342   -0.120269   -2.617593
     31          1           0       -4.280715   -0.175897   -1.496142
     32          1           0       -3.254322   -1.487599   -0.927474
     33          1           0       -2.709787   -0.241686    1.118439
     34          1           0       -4.730187    1.832036    0.097893
     35          1           0       -4.077568    1.772267    1.746985
     36          1           0       -3.003626    2.120876    0.387746
     37          1           0       -4.846089   -0.592009    2.066484
     38          1           0       -5.566912   -0.581245    0.610350
 ---------------------------------------------------------------------

 SCF Done:  E(UB3LYP) =  -602.328984227     A.U. after   33 cycles
 SCF Done:  E(UB3LYP) =  -602.328984227     a.u. after    1 cycles

 The electronic state is 2-A.
 Alpha  occ. eigenvalues --  -14.19586 -10.10076 -10.08801 -10.08744 -10.08152
 Alpha  occ. eigenvalues --  -10.08126 -10.08066 -10.08021 -10.07965 -10.07964
 Alpha  occ. eigenvalues --  -10.07608 -10.07264 -10.07249 -10.06652 -10.06129
 Alpha  occ. eigenvalues --   -0.79350  -0.77153  -0.72061  -0.69469  -0.66065
 Alpha  occ. eigenvalues --   -0.65464  -0.62980  -0.60734  -0.56560  -0.54179
 Alpha  occ. eigenvalues --   -0.51889  -0.49849  -0.47324  -0.46721  -0.40509
 Alpha  occ. eigenvalues --   -0.39944  -0.38416  -0.37302  -0.36606  -0.36358
 Alpha  occ. eigenvalues --   -0.35343  -0.34283  -0.32906  -0.32154  -0.31656
 Alpha  occ. eigenvalues --   -0.30654  -0.30454  -0.29896  -0.28895  -0.28199
 Alpha  occ. eigenvalues --   -0.26878  -0.25790  -0.25374  -0.25075  -0.23913
 Alpha  occ. eigenvalues --   -0.23894  -0.23337  -0.23043  -0.22605  -0.16394
 Alpha  occ. eigenvalues --   -0.15047  -0.14659   0.04127
 Alpha virt. eigenvalues --    0.05384   0.06561   0.06658   0.07288   0.07490
 Alpha virt. eigenvalues --    0.07802   0.08032   0.08637   0.09179   0.09525
 Alpha virt. eigenvalues --    0.09885   0.10033   0.10806   0.10863   0.11031

  Beta  occ. eigenvalues --  -14.19554 -10.10071 -10.08802 -10.08746 -10.08141
  Beta  occ. eigenvalues --  -10.08116 -10.08054 -10.08011 -10.07955 -10.07953
  Beta  occ. eigenvalues --  -10.07593 -10.07251 -10.07238 -10.06622 -10.06092
  Beta  occ. eigenvalues --   -0.79298  -0.77138  -0.72039  -0.69440  -0.66033
  Beta  occ. eigenvalues --   -0.65443  -0.62936  -0.60691  -0.56516  -0.54132
  Beta  occ. eigenvalues --   -0.51858  -0.49810  -0.47272  -0.46683  -0.40477
  Beta  occ. eigenvalues --   -0.39914  -0.38389  -0.37269  -0.36572  -0.36328
  Beta  occ. eigenvalues --   -0.35309  -0.34252  -0.32881  -0.32123  -0.31619
  Beta  occ. eigenvalues --   -0.30615  -0.30427  -0.29866  -0.28870  -0.28169
  Beta  occ. eigenvalues --   -0.26846  -0.25763  -0.25341  -0.25046  -0.23889
  Beta  occ. eigenvalues --   -0.23867  -0.23306  -0.23017  -0.22579  -0.16375
  Beta  occ. eigenvalues --   -0.15004  -0.14647
  Beta virt. eigenvalues --    0.06003   0.06308   0.06876   0.07098   0.07531
  Beta virt. eigenvalues --    0.07847   0.08214   0.08358   0.08858   0.09539
  Beta virt. eigenvalues --    0.09741   0.10257   0.10325   0.10977   0.11169

 Mulliken charges and spin densities:
               1          2
     1  C    0.633980  -1.218447
     2  C   -0.857993   0.636857
     3  C    0.625397  -0.860013
     4  C    0.188098  -0.610558
     5  C    1.002654  -0.190879
     6  C   -0.599534   0.071872
     7  C   -0.459926  -0.003392
     8  C    1.264033  -0.315571
     9  C   -0.558388   0.101831
    10  C   -0.583160   0.058685
    11  C   -0.181860  -0.423903
    12  C    0.689278  -0.804531
    13  C   -0.864965   0.498311
    14  C    0.618720  -1.208262
    15  N   -0.263641   0.005827
    16  H   -0.049102   0.182648
    17  H   -0.156931   0.288790
    18  H   -0.183442   0.317395
    19  H    0.201368  -0.072075
    20  H   -0.162522   0.317712
    21  H   -0.032838   0.165240
    22  H   -0.235838   0.380910
    23  H   -0.016688   0.192712
    24  H    0.000871   0.152047
    25  H   -0.157474   0.313703
    26  H   -0.305741   0.466173
    27  H   -0.021347   0.169251
    28  H   -0.218460   0.382336
    29  H    0.081426   0.067959
    30  H    0.057423   0.121730
    31  H   -0.176580   0.307036
    32  H    0.061637   0.124369
    33  H    0.236811  -0.036092
    34  H   -0.323503   0.474198
    35  H   -0.286185   0.416061
    36  H    0.040214   0.081183
    37  H   -0.032132   0.257552
    38  H    0.026343   0.191333
 Sum of Mulliken charges =  -1.00000   1.00000

 Dipole moment (field-independent basis, Debye):
    X=              0.8961    Y=             -1.2441    Z=             -1.9536  Tot=              2.4834
 Quadrupole moment (field-independent basis, Debye-Ang):
   XX=           -221.4334   YY=           -137.3670   ZZ=           -127.6146
   XY=             -0.2148   XZ=              5.6115   YZ=              0.3172

 Summary of Natural Population Analysis:

                                       Natural Population
                Natural  -----------------------------------------------
    Atom  No    Charge         Core      Valence    Rydberg      Total
 -----------------------------------------------------------------------
      C    1   -0.28716      0.99967     2.28251    0.00498     3.28716
      C    2   -0.19484      0.99964     2.18667    0.00853     3.19484
      C    3   -0.18383      0.99962     2.17569    0.00851     3.18383
      C    4   -0.20984      0.99962     2.19725    0.01297     3.20984
      C    5    0.02687      0.99951     1.96733    0.00629     2.97313
      C    6   -0.11345      0.99954     2.09952    0.01439     3.11345
      C    7   -0.09844      0.99951     2.08975    0.00917     3.09844
      C    8   -0.01800      0.99951     2.00862    0.00988     3.01800
      C    9   -0.09767      0.99951     2.08992    0.00824     3.09767
      C   10   -0.11255      0.99955     2.09928    0.01372     3.11255
      C   11   -0.19711      0.99960     2.18909    0.00843     3.19711
      C   12   -0.18606      0.99960     2.17688    0.00958     3.18606
      C   13   -0.02077      0.99961     2.01013    0.01103     3.02077
      C   14   -0.29433      0.99965     2.28840    0.00628     3.29433
      N   15   -0.41918      0.99977     2.90922    0.01019     3.91918
      H   16    0.09580      0.00000     0.40298    0.00122     0.40420
      H   17    0.09892      0.00000     0.40021    0.00087     0.40108
      H   18    0.09557      0.00000     0.40323    0.00119     0.40443
      H   19    0.09803      0.00000     0.40051    0.00146     0.40197
      H   20    0.09515      0.00000     0.40385    0.00101     0.40485
      H   21    0.09581      0.00000     0.40288    0.00130     0.40419
      H   22    0.09564      0.00000     0.40311    0.00125     0.40436
      H   23    0.10295      0.00000     0.39598    0.00107     0.39705
      H   24    0.10005      0.00000     0.39869    0.00126     0.39995
      H   25    0.09993      0.00000     0.39850    0.00158     0.40007
      H   26    0.09989      0.00000     0.39859    0.00151     0.40011
      H   27    0.09894      0.00000     0.39975    0.00131     0.40106
      H   28    0.09900      0.00000     0.39977    0.00123     0.40100
      H   29    0.10030      0.00000     0.39839    0.00131     0.39970
      H   30    0.10212      0.00000     0.39689    0.00099     0.39788
      H   31    0.09512      0.00000     0.40384    0.00104     0.40488
      H   32    0.10213      0.00000     0.39649    0.00138     0.39787
      H   33    0.09234      0.00000     0.40527    0.00239     0.40766
      H   34    0.09565      0.00000     0.40262    0.00172     0.40435
      H   35    0.09968      0.00000     0.39889    0.00143     0.40032
      H   36    0.09948      0.00000     0.39919    0.00133     0.40052
      H   37    0.17376      0.00000     0.32457    0.00166     0.32624
      H   38    0.17014      0.00000     0.32785    0.00202     0.32986
 =======================================================================
   * Total *    0.00004     14.99389    41.83232    0.17375    56.99996

 Normal termination of Gaussian 16 at Thu Dec 10 17:07:21 2020.
