 Gaussian 16, Revision A.03,

 -----------------------------------------------------------
 # opt freq B3LYP/6-31G(d) empiricaldispersion=gd3bj scf=xqc
 -----------------------------------------------------------

 ------------------------------
 CID_46763043_JID_8487_neutraal
 ------------------------------
 Symbolic Z-matrix:
 Charge =  0 Multiplicity = 1

 SCF Done:  E(RB3LYP) =  -1112.50108543     A.U. after   15 cycles
 SCF Done:  E(RB3LYP) =  -1112.50715404     A.U. after   13 cycles
 SCF Done:  E(RB3LYP) =  -1112.50713683     A.U. after   13 cycles
 SCF Done:  E(RB3LYP) =  -1112.50797075     A.U. after   12 cycles
 SCF Done:  E(RB3LYP) =  -1112.50840232     A.U. after   12 cycles
 SCF Done:  E(RB3LYP) =  -1112.50859513     A.U. after   12 cycles
 SCF Done:  E(RB3LYP) =  -1112.50876559     A.U. after   11 cycles
 SCF Done:  E(RB3LYP) =  -1112.50880828     A.U. after   11 cycles
 SCF Done:  E(RB3LYP) =  -1112.50887364     A.U. after   10 cycles
 SCF Done:  E(RB3LYP) =  -1112.50890010     A.U. after   11 cycles
 SCF Done:  E(RB3LYP) =  -1112.50891799     A.U. after   10 cycles
 SCF Done:  E(RB3LYP) =  -1112.50893003     A.U. after   10 cycles
 SCF Done:  E(RB3LYP) =  -1112.50893660     A.U. after   10 cycles
 SCF Done:  E(RB3LYP) =  -1112.50893779     A.U. after    8 cycles
 Optimization completed.
    -- Stationary point found.
 Normal termination of Gaussian 16 at Fri Dec 11 20:56:59 2020.

 --------------------------------------------------------------------
 #N Geom=AllCheck Guess=TCheck SCRF=Check GenChk RB3LYP/6-31G(d) Freq
 --------------------------------------------------------------------

 Structure from the checkpoint file:  "JID_8487.chk"
 ------------------------------
 CID_46763043_JID_8487_neutraal
 ------------------------------
 Charge =  0 Multiplicity = 1

 SCF Done:  E(RB3LYP) =  -1112.50893779     A.U. after    1 cycles

  Exact polarizability: 191.071 -10.124 190.620  11.029   3.334 148.234
 Approx polarizability: 251.335 -15.895 293.188  22.612   3.586 253.015

                      1                      2                      3
                      A                      A                      A
 Frequencies --     27.3739                34.9953                49.7690
 Red. masses --      4.0099                 4.7195                 3.5143
 Frc consts  --      0.0018                 0.0034                 0.0051
 IR Inten    --      0.0342                 1.7278                 0.7357

                      4                      5                      6
                      A                      A                      A
 Frequencies --     63.2260                84.9027               121.9549
 Red. masses --      4.4920                 3.5049                 3.9029
 Frc consts  --      0.0106                 0.0149                 0.0342
 IR Inten    --      0.4693                 2.7841                 1.1109

                      7                      8                      9
                      A                      A                      A
 Frequencies --    125.0793               150.1189               177.0334
 Red. masses --      3.2571                 4.3498                 1.0685
 Frc consts  --      0.0300                 0.0578                 0.0197
 IR Inten    --      0.7572                 2.2680                 0.4547

                     10                     11                     12
                      A                      A                      A
 Frequencies --    186.3576               196.2681               215.3270
 Red. masses --      3.2847                 1.1120                 3.4143
 Frc consts  --      0.0672                 0.0252                 0.0933
 IR Inten    --      2.3654                 0.4648                 0.1922

                     13                     14                     15
                      A                      A                      A
 Frequencies --    237.8664               263.6722               283.1543
 Red. masses --      2.5189                 4.8363                 3.0043
 Frc consts  --      0.0840                 0.1981                 0.1419
 IR Inten    --      0.8627                 2.6372                 0.6831

                     16                     17                     18
                      A                      A                      A
 Frequencies --    290.9968               347.2182               370.0796
 Red. masses --      3.6445                 2.0370                 5.1141
 Frc consts  --      0.1818                 0.1447                 0.4127
 IR Inten    --      1.5225                 1.0168                 2.4097

                     19                     20                     21
                      A                      A                      A
 Frequencies --    390.1902               402.1026               418.4882
 Red. masses --      3.9427                 2.7444                 2.9873
 Frc consts  --      0.3537                 0.2614                 0.3082
 IR Inten    --      4.8231                 1.6344                10.2449

                     22                     23                     24
                      A                      A                      A
 Frequencies --    438.0968               487.8234               489.8412
 Red. masses --      6.5564                 3.3405                 1.9584
 Frc consts  --      0.7414                 0.4684                 0.2769
 IR Inten    --      1.5154                 3.7682                 1.9734

                     25                     26                     27
                      A                      A                      A
 Frequencies --    503.4640               570.0556               601.3037
 Red. masses --      3.7373                 3.1963                 4.1754
 Frc consts  --      0.5581                 0.6120                 0.8895
 IR Inten    --      7.3251                 7.5081                 0.9165

                     28                     29                     30
                      A                      A                      A
 Frequencies --    671.5779               693.4724               721.1701
 Red. masses --      5.4492                 5.9249                 3.6428
 Frc consts  --      1.4480                 1.6788                 1.1163
 IR Inten    --      6.9322                 0.7968                12.0836

                     31                     32                     33
                      A                      A                      A
 Frequencies --    749.2036               756.4539               762.0003
 Red. masses --      3.5475                 7.8270                 2.3443
 Frc consts  --      1.1732                 2.6388                 0.8020
 IR Inten    --      4.0100                 4.7515                11.5499

                     34                     35                     36
                      A                      A                      A
 Frequencies --    782.4234               783.7312               822.9631
 Red. masses --      1.7272                 1.5720                 3.7358
 Frc consts  --      0.6230                 0.5689                 1.4907
 IR Inten    --     25.8019                 8.9329                 1.9823

                     37                     38                     39
                      A                      A                      A
 Frequencies --    871.0802               875.4906               890.0602
 Red. masses --      2.3290                 2.2659                 1.4656
 Frc consts  --      1.0412                 1.0233                 0.6841
 IR Inten    --      3.6475                 2.4007                 6.1598

                     40                     41                     42
                      A                      A                      A
 Frequencies --    890.5837               937.4040               947.9950
 Red. masses --      1.6416                 2.8874                 1.3949
 Frc consts  --      0.7671                 1.4949                 0.7386
 IR Inten    --      1.5779                 1.1482                 3.3222

                     43                     44                     45
                      A                      A                      A
 Frequencies --    957.5902               990.6752              1005.6290
 Red. masses --      1.3934                 1.2695                 1.1913
 Frc consts  --      0.7528                 0.7341                 0.7098
 IR Inten    --      3.9192                 0.0112                 6.7870

                     46                     47                     48
                      A                      A                      A
 Frequencies --   1025.0428              1039.7582              1054.4266
 Red. masses --      1.2733                 2.5872                 1.9332
 Frc consts  --      0.7882                 1.6479                 1.2664
 IR Inten    --     22.6883                 6.1337                 4.1099

                     49                     50                     51
                      A                      A                      A
 Frequencies --   1060.5613              1064.6535              1064.7584
 Red. masses --      1.7656                 2.3708                 3.3955
 Frc consts  --      1.1701                 1.5833                 2.2680
 IR Inten    --      8.7098                33.0011                18.3882

                     52                     53                     54
                      A                      A                      A
 Frequencies --   1096.9737              1115.4816              1143.4474
 Red. masses --      2.2406                 1.8871                 1.9017
 Frc consts  --      1.5886                 1.3835                 1.4650
 IR Inten    --     18.4894                 3.7129                45.7615

                     55                     56                     57
                      A                      A                      A
 Frequencies --   1147.7394              1154.1674              1160.4713
 Red. masses --      1.0739                 1.6311                 1.3437
 Frc consts  --      0.8335                 1.2802                 1.0662
 IR Inten    --      3.5538                 2.1101                 0.3788

                     58                     59                     60
                      A                      A                      A
 Frequencies --   1177.1225              1196.2439              1223.3337
 Red. masses --      1.5564                 1.0966                 2.8707
 Frc consts  --      1.2706                 0.9245                 2.5312
 IR Inten    --      4.7307                 0.1739                 5.0210

                     61                     62                     63
                      A                      A                      A
 Frequencies --   1267.3306              1293.5906              1297.6909
 Red. masses --      2.2437                 1.4293                 1.4209
 Frc consts  --      2.1232                 1.4092                 1.4098
 IR Inten    --     61.3347                 1.9498                 5.1030

                     64                     65                     66
                      A                      A                      A
 Frequencies --   1306.6653              1331.8751              1333.7516
 Red. masses --      1.2802                 1.8364                 5.4024
 Frc consts  --      1.2879                 1.9193                 5.6622
 IR Inten    --      2.5174                17.4434                 3.2303

                     67                     68                     69
                      A                      A                      A
 Frequencies --   1352.3689              1374.4874              1386.3681
 Red. masses --      1.4076                 1.3645                 1.4070
 Frc consts  --      1.5168                 1.5189                 1.5933
 IR Inten    --      5.2564                 4.0836                52.1297

                     70                     71                     72
                      A                      A                      A
 Frequencies --   1390.0995              1399.9730              1406.9349
 Red. masses --      1.3469                 1.4132                 1.4819
 Frc consts  --      1.5335                 1.6318                 1.7283
 IR Inten    --     29.4775                 4.5278                13.6425

                     73                     74                     75
                      A                      A                      A
 Frequencies --   1408.5425              1420.2422              1459.8569
 Red. masses --      1.4354                 1.6379                 1.2247
 Frc consts  --      1.6779                 1.9465                 1.5378
 IR Inten    --      4.5363                43.1958                37.4362

                     76                     77                     78
                      A                      A                      A
 Frequencies --   1475.6446              1482.2509              1498.1040
 Red. masses --      1.5533                 2.0825                 1.0555
 Frc consts  --      1.9928                 2.6957                 1.3957
 IR Inten    --     66.0365                32.0597                 8.7138

                     79                     80                     81
                      A                      A                      A
 Frequencies --   1504.4935              1510.3573              1514.9644
 Red. masses --      1.0951                 1.0886                 2.0863
 Frc consts  --      1.4604                 1.4632                 2.8212
 IR Inten    --      1.8214                 0.9598                 7.2508

                     82                     83                     84
                      A                      A                      A
 Frequencies --   1520.0478              1522.4604              1525.0890
 Red. masses --      1.0835                 1.1721                 1.0693
 Frc consts  --      1.4750                 1.6006                 1.4654
 IR Inten    --      5.0654                11.1081                 6.1306

                     85                     86                     87
                      A                      A                      A
 Frequencies --   1535.8794              1542.9104              1549.2031
 Red. masses --      1.1135                 1.0802                 1.1169
 Frc consts  --      1.5475                 1.5151                 1.5794
 IR Inten    --     13.8978                 8.8906                20.7172

                     88                     89                     90
                      A                      A                      A
 Frequencies --   1624.0523              1648.1290              1726.3398
 Red. masses --      5.6369                 5.6936                10.3160
 Frc consts  --      8.7598                 9.1121                18.1140
 IR Inten    --      0.2478                 2.2486               324.1620

                     91                     92                     93
                      A                      A                      A
 Frequencies --   3023.0104              3028.9723              3040.9039
 Red. masses --      1.0670                 1.0693                 1.0683
 Frc consts  --      5.7453                 5.7802                 5.8203
 IR Inten    --     21.9739                14.8314                17.5749

                     94                     95                     96
                      A                      A                      A
 Frequencies --   3043.7804              3054.9385              3063.6012
 Red. masses --      1.0608                 1.0634                 1.0442
 Frc consts  --      5.7905                 5.8472                 5.7741
 IR Inten    --     20.9173                24.5261                60.8818

                     97                     98                     99
                      A                      A                      A
 Frequencies --   3070.1010              3075.4658              3080.7259
 Red. masses --      1.0293                 1.0933                 1.1015
 Frc consts  --      5.7159                 6.0928                 6.1592
 IR Inten    --     37.6068                63.8252                51.1677

                    100                    101                    102
                      A                      A                      A
 Frequencies --   3091.9595              3094.2823              3104.3303
 Red. masses --      1.0960                 1.0967                 1.0983
 Frc consts  --      6.1737                 6.1867                 6.2361
 IR Inten    --     14.9533                26.4492                70.9394

                    103                    104                    105
                      A                      A                      A
 Frequencies --   3128.7383              3139.8796              3157.3261
 Red. masses --      1.0991                 1.0841                 1.1062
 Frc consts  --      6.3392                 6.2972                 6.4969
 IR Inten    --     26.5050                13.0756                 9.6750

                    106                    107                    108
                      A                      A                      A
 Frequencies --   3180.7795              3187.6058              3189.0631
 Red. masses --      1.1078                 1.0855                 1.0991
 Frc consts  --      6.6037                 6.4985                 6.5859
 IR Inten    --      0.3760                 0.2918                 0.6840

                    109                    110                    111
                      A                      A                      A
 Frequencies --   3196.9328              3208.2549              3216.6929
 Red. masses --      1.0896                 1.0935                 1.0968
 Frc consts  --      6.5611                 6.6312                 6.6864
 IR Inten    --     10.6044                17.2691                17.6944

 - Thermochemistry -
 -------------------
 Temperature   298.150 Kelvin.  Pressure   1.00000 Atm.
 Atom     1 has atomic number  6 and mass  12.00000

 Molecular mass:   263.13439 amu.
 Principal axes and moments of inertia in atomic units:
                           1         2         3
     Eigenvalues --  3114.922826594.966367507.16446
           X            0.99999   0.00302  -0.00357
           Y           -0.00306   0.99991  -0.01295
           Z            0.00353   0.01296   0.99991
 This molecule is an asymmetric top.
 Rotational symmetry number  1.
 Warning -- assumption of classical behavior for rotation
           may cause significant error
 Rotational temperatures (Kelvin)      0.02781     0.01313     0.01154
 Rotational constants (GHZ):           0.57939     0.27365     0.24040
 Zero-point vibrational energy     887315.1 (Joules/Mol)
                                  212.07339 (Kcal/Mol)
 Warning -- explicit consideration of  27 degrees of freedom as
           vibrations may cause significant error
 Vibrational temperatures:     39.38    50.35    71.61    90.97   122.16
          (Kelvin)            175.47   179.96   215.99   254.71   268.13
                              282.39   309.81   342.24   379.37   407.40
                              418.68   499.57   532.46   561.40   578.54
                              602.11   630.32   701.87   704.77   724.37
                              820.18   865.14   966.25   997.75  1037.60
                             1077.94  1088.37  1096.35  1125.73  1127.61
                             1184.06  1253.29  1259.64  1280.60  1281.35
                             1348.72  1363.95  1377.76  1425.36  1446.88
                             1474.81  1495.98  1517.08  1525.91  1531.80
                             1531.95  1578.30  1604.93  1645.17  1651.34
                             1660.59  1669.66  1693.62  1721.13  1760.10
                             1823.41  1861.19  1867.09  1880.00  1916.27
                             1918.97  1945.76  1977.58  1994.67  2000.04
                             2014.25  2024.27  2026.58  2043.41  2100.41
                             2123.12  2132.63  2155.44  2164.63  2173.07
                             2179.70  2187.01  2190.48  2194.26  2209.79
                             2219.90  2228.96  2336.65  2371.29  2483.82
                             4349.44  4358.02  4375.18  4379.32  4395.38
                             4407.84  4417.19  4424.91  4432.48  4448.64
                             4451.98  4466.44  4501.56  4517.59  4542.69
                             4576.43  4586.25  4588.35  4599.67  4615.96
                             4628.10

 Zero-point correction=                           0.337960 (Hartree/Particle)
 Thermal correction to Energy=                    0.355880
 Thermal correction to Enthalpy=                  0.356825
 Thermal correction to Gibbs Free Energy=         0.291151
 Sum of electronic and zero-point Energies=          -1112.170977
 Sum of electronic and thermal Energies=             -1112.153057
 Sum of electronic and thermal Enthalpies=           -1112.152113
 Sum of electronic and thermal Free Energies=        -1112.217786

                     E (Thermal)             CV                S
                      KCal/Mol        Cal/Mol-Kelvin    Cal/Mol-Kelvin
 Total                  223.318             68.440            138.221
 Electronic               0.000              0.000              0.000
 Translational            0.889              2.981             42.602
 Rotational               0.889              2.981             33.400
 Vibrational            221.541             62.478             62.219
 Vibration     1          0.593              1.984              6.011
 Vibration     2          0.594              1.982              5.524
 Vibration     3          0.595              1.978              4.827
 Vibration     4          0.597              1.972              4.354
 Vibration     5          0.601              1.960              3.774
 Vibration     6          0.609              1.931              3.069
 Vibration     7          0.610              1.928              3.020
 Vibration     8          0.618              1.903              2.671
 Vibration     9          0.628              1.871              2.359
 Vibration    10          0.632              1.859              2.264
 Vibration    11          0.636              1.845              2.168
 Vibration    12          0.645              1.818              1.998
 Vibration    13          0.656              1.783              1.819
 Vibration    14          0.670              1.739              1.637
 Vibration    15          0.682              1.705              1.515
 Vibration    16          0.687              1.690              1.468
 Vibration    17          0.725              1.581              1.179
 Vibration    18          0.742              1.534              1.079
 Vibration    19          0.758              1.491              0.999
 Vibration    20          0.768              1.466              0.955
 Vibration    21          0.781              1.430              0.897
 Vibration    22          0.798              1.387              0.833
 Vibration    23          0.844              1.277              0.689
 Vibration    24          0.846              1.273              0.684
 Vibration    25          0.859              1.242              0.650
 Vibration    26          0.926              1.096              0.504
 Vibration    27          0.960              1.029              0.447

 Optimization completed.
    -- Stationary point found.
 Normal termination of Gaussian 16 at Fri Dec 11 21:17:45 2020.

 ----------------------------------------------------------------------
 # B3LYP/6-311++G(d,p) empiricaldispersion=gd3bj scf=xqc pop=npa geom=c
 heck
 ----------------------------------------------------------------------

 --------------------------------------
 CID_46763043_JID_8487_Energie_neutraal
 --------------------------------------
 Structure from the checkpoint file:  "JID_8487.chk"
 Charge =  0 Multiplicity = 1

 SCF Done:  E(RB3LYP) =  -1112.72640721     A.U. after   16 cycles
 Normal termination of Gaussian 16 at Fri Dec 11 21:28:16 2020.

 ----------------------------------------------------------------------
 # B3LYP/6-311++G(d,p) empiricaldispersion=gd3bj scf=xqc pop=npa geom=c
 heck
 ----------------------------------------------------------------------

 ------------------------------------
 CID_46763043_JID_8487_Energie_kation
 ------------------------------------
 Structure from the checkpoint file:  "JID_8487.chk"
 Charge =  1 Multiplicity = 2

 SCF Done:  E(UB3LYP) =  -1112.43676540     A.U. after   26 cycles
 Normal termination of Gaussian 16 at Fri Dec 11 21:52:18 2020.
 Gaussian 16:  ES64L-G16RevA.03 25-Dec-2016

 ----------------------------------------------------------------------
 # B3LYP/6-311++G(d,p) empiricaldispersion=gd3bj scf=xqc pop=npa geom=c
 heck
 ----------------------------------------------------------------------

 -----------------------------------
 CID_46763043_JID_8487_Energie_anion
 -----------------------------------
 Structure from the checkpoint file:  "JID_8487.chk"
 Charge = -1 Multiplicity = 2

                         Standard orientation:
 ---------------------------------------------------------------------
 Center     Atomic      Atomic             Coordinates (Angstroms)
 Number     Number       Type             X           Y           Z
 ---------------------------------------------------------------------
      1          6           0        1.738733   -1.478058    1.543210
      2          7           0        0.875172   -0.539751    0.836530
      3          6           0        1.344537    0.177442   -0.365888
      4          6           0        2.066997    1.502182   -0.039436
      5          6           0        3.545791    1.345818    0.336518
      6          6           0        4.304631    0.567524   -0.746003
      7          6           0        3.674823   -0.811005   -0.985727
      8          6           0        2.177992   -0.701557   -1.321948
      9          6           0       -0.416683   -0.441695    1.272470
     10          8           0       -0.854931   -1.064118    2.241838
     11          6           0       -1.335282    0.516956    0.550760
     12          6           0       -1.471977    1.820045    1.036564
     13          6           0       -2.359164    2.711832    0.434323
     14          6           0       -3.126282    2.300674   -0.655408
     15          6           0       -3.012138    0.994541   -1.132354
     16          6           0       -2.124277    0.094718   -0.533371
     17         16           0       -1.956552   -1.561292   -1.203571
     18          6           0       -2.851184   -2.527325    0.077988
     19          1           0        1.985945   -2.338038    0.911527
     20          1           0        1.192643   -1.828440    2.417701
     21          1           0        2.665908   -0.995354    1.861212
     22          1           0        0.436203    0.439440   -0.906304
     23          1           0        2.006680    2.132043   -0.938632
     24          1           0        1.512248    2.026235    0.746265
     25          1           0        3.641671    0.829308    1.300176
     26          1           0        3.993990    2.337459    0.474830
     27          1           0        5.360596    0.457943   -0.470852
     28          1           0        4.281504    1.145237   -1.681869
     29          1           0        3.828748   -1.433572   -0.097853
     30          1           0        4.187541   -1.321778   -1.810058
     31          1           0        1.711906   -1.689589   -1.403900
     32          1           0        2.090937   -0.239376   -2.314419
     33          1           0       -0.876977    2.132767    1.889862
     34          1           0       -2.450025    3.724433    0.816575
     35          1           0       -3.818363    2.990758   -1.129330
     36          1           0       -3.612105    0.659368   -1.972461
     37          1           0       -2.407337   -2.348032    1.058413
     38          1           0       -3.910905   -2.261462    0.081855
     39          1           0       -2.741844   -3.580028   -0.196193
 ---------------------------------------------------------------------

 SCF Done:  E(UB3LYP) =  -1112.71598991     A.U. after   33 cycles
 SCF Done:  E(UB3LYP) =  -1112.71598991     a.u. after    1 cycles

 The electronic state is 2-A.
 Alpha  occ. eigenvalues --  -88.73690 -18.98469 -14.24215 -10.16934 -10.10859
 Alpha  occ. eigenvalues --  -10.09719 -10.09202 -10.08380 -10.07836 -10.07491
 Alpha  occ. eigenvalues --  -10.07444 -10.07148 -10.07001 -10.06771 -10.06674
 Alpha  occ. eigenvalues --  -10.06576 -10.06533 -10.06472  -7.82251  -5.78647
 Alpha  occ. eigenvalues --   -5.78288  -5.77624  -0.93609  -0.83626  -0.76145
 Alpha  occ. eigenvalues --   -0.72733  -0.68959  -0.66248  -0.64861  -0.64706
 Alpha  occ. eigenvalues --   -0.63220  -0.60449  -0.54560  -0.52657  -0.51763
 Alpha  occ. eigenvalues --   -0.51247  -0.48494  -0.47345  -0.43834  -0.41189
 Alpha  occ. eigenvalues --   -0.39189  -0.37999  -0.37579  -0.35847  -0.35504
 Alpha  occ. eigenvalues --   -0.34909  -0.34028  -0.33066  -0.32768  -0.32225
 Alpha  occ. eigenvalues --   -0.31263  -0.30856  -0.29906  -0.29210  -0.28461
 Alpha  occ. eigenvalues --   -0.28299  -0.27951  -0.27120  -0.26401  -0.25548
 Alpha  occ. eigenvalues --   -0.25057  -0.24727  -0.22178  -0.21741  -0.21316
 Alpha  occ. eigenvalues --   -0.20868  -0.17055  -0.15667  -0.14464  -0.14084
 Alpha  occ. eigenvalues --   -0.12296   0.04434
 Alpha virt. eigenvalues --    0.05894   0.06881   0.07523   0.07570   0.08144
 Alpha virt. eigenvalues --    0.08310   0.08577   0.09160   0.10020   0.10222
 Alpha virt. eigenvalues --    0.10627   0.10898   0.11292   0.11780   0.11816

  Beta  occ. eigenvalues --  -88.73686 -18.98455 -14.24213 -10.16940 -10.10862
  Beta  occ. eigenvalues --  -10.09705 -10.09058 -10.08296 -10.07707 -10.07493
  Beta  occ. eigenvalues --  -10.07480 -10.07135 -10.06942 -10.06757 -10.06565
  Beta  occ. eigenvalues --  -10.06513 -10.06511 -10.06448  -7.82245  -5.78634
  Beta  occ. eigenvalues --   -5.78291  -5.77618  -0.93576  -0.83610  -0.75929
  Beta  occ. eigenvalues --   -0.72706  -0.68747  -0.66086  -0.64809  -0.64669
  Beta  occ. eigenvalues --   -0.63028  -0.60385  -0.54355  -0.52616  -0.51716
  Beta  occ. eigenvalues --   -0.51189  -0.48358  -0.47281  -0.43727  -0.41114
  Beta  occ. eigenvalues --   -0.39146  -0.37919  -0.37525  -0.35788  -0.35458
  Beta  occ. eigenvalues --   -0.34853  -0.33934  -0.32998  -0.32740  -0.32171
  Beta  occ. eigenvalues --   -0.31213  -0.30778  -0.29758  -0.29180  -0.28324
  Beta  occ. eigenvalues --   -0.28262  -0.27828  -0.27081  -0.26239  -0.25489
  Beta  occ. eigenvalues --   -0.24937  -0.24533  -0.22134  -0.21563  -0.21266
  Beta  occ. eigenvalues --   -0.20823  -0.16731  -0.15224  -0.14251  -0.13790
  Beta  occ. eigenvalues --   -0.12134
  Beta virt. eigenvalues --    0.06588   0.07046   0.07146   0.07902   0.08183
  Beta virt. eigenvalues --    0.08470   0.08648   0.08833   0.09501   0.10112
  Beta virt. eigenvalues --    0.10336   0.10925   0.10975   0.11410   0.11851

 Mulliken charges and spin densities:
               1          2
     1  C    0.086466  -0.317000
     2  N    0.291614   0.081988
     3  C   -0.123844   0.136158
     4  C   -0.399148  -0.220236
     5  C   -0.065354  -0.098585
     6  C    1.035441  -1.613080
     7  C   -0.304308   0.222624
     8  C   -0.112479  -0.511616
     9  C   -0.757265  -0.130149
    10  O   -0.238105  -0.007313
    11  C    0.494680   0.211895
    12  C    0.002359   0.128152
    13  C   -0.307375  -0.118917
    14  C   -0.095055  -0.238889
    15  C   -0.182725   0.141211
    16  C    0.146363   0.132557
    17  S   -0.032389   0.026348
    18  C   -0.595826  -0.088484
    19  H    0.048023   0.106578
    20  H    0.231944  -0.046542
    21  H    0.034904   0.116329
    22  H    0.487747  -0.234646
    23  H   -0.215963   0.375641
    24  H    0.100306   0.027989
    25  H    0.080998   0.032683
    26  H   -0.529919   0.722706
    27  H   -0.637797   0.819153
    28  H    0.161460  -0.035292
    29  H    0.013892   0.099117
    30  H   -0.262984   0.445813
    31  H    0.251615  -0.096927
    32  H   -0.240099   0.405245
    33  H    0.054558   0.137066
    34  H   -0.031196   0.172220
    35  H    0.062932   0.066378
    36  H    0.122881   0.052454
    37  H    0.208232   0.002320
    38  H    0.140130   0.022504
    39  H    0.075287   0.072546
 Sum of Mulliken charges =  -1.00000   1.00000

 Dipole moment (field-independent basis, Debye):
    X=             -4.8707    Y=             -2.2767    Z=              0.0770  Tot=              5.3771
 Quadrupole moment (field-independent basis, Debye-Ang):
   XX=           -200.9404   YY=           -154.3847   ZZ=           -150.4275
   XY=            -10.2363   XZ=              8.6546   YZ=              0.8246

 Summary of Natural Population Analysis:

                                       Natural Population
                Natural  -----------------------------------------------
    Atom  No    Charge         Core      Valence    Rydberg      Total
 -----------------------------------------------------------------------
      C    1   -0.18380      0.99963     2.17647    0.00770     3.18380
      N    2   -0.25138      0.99962     2.74062    0.01115     3.75138
      C    3   -0.00505      0.99955     1.99278    0.01273     3.00505
      C    4   -0.19301      0.99960     2.18434    0.00907     3.19301
      C    5   -0.19103      0.99963     2.18271    0.00870     3.19103
      C    6   -0.18885      0.99963     2.18071    0.00852     3.18885
      C    7   -0.19266      0.99963     2.18437    0.00866     3.19266
      C    8   -0.19567      0.99961     2.18729    0.00877     3.19567
      C    9    0.34951      0.99955     1.62661    0.02432     2.65049
      O   10   -0.33037      0.99988     3.32569    0.00480     4.33037
      C   11   -0.04215      0.99939     2.02876    0.01400     3.04215
      C   12   -0.10230      0.99951     2.09332    0.00947     3.10230
      C   13   -0.07130      0.99957     2.06179    0.00995     3.07130
      C   14   -0.09926      0.99957     2.09039    0.00930     3.09926
      C   15   -0.09829      0.99944     2.08752    0.01133     3.09829
      C   16   -0.06471      0.99931     2.05121    0.01419     3.06471
      S   17    0.09174      4.99957     2.88960    0.01909     7.90826
      C   18   -0.33789      0.99961     2.33290    0.00537     3.33789
      H   19    0.09277      0.00000     0.40632    0.00091     0.40723
      H   20    0.11561      0.00000     0.38334    0.00105     0.38439
      H   21    0.09409      0.00000     0.40473    0.00118     0.40591
      H   22    0.11378      0.00000     0.38406    0.00216     0.38622
      H   23    0.09818      0.00000     0.40059    0.00123     0.40182
      H   24    0.10363      0.00000     0.39503    0.00134     0.39637
      H   25    0.09061      0.00000     0.40802    0.00137     0.40939
      H   26    0.10148      0.00000     0.39709    0.00142     0.39852
      H   27    0.10010      0.00000     0.39821    0.00169     0.39990
      H   28    0.09261      0.00000     0.40587    0.00152     0.40739
      H   29    0.09294      0.00000     0.40570    0.00136     0.40706
      H   30    0.09893      0.00000     0.40009    0.00098     0.40107
      H   31    0.10475      0.00000     0.39411    0.00114     0.39525
      H   32    0.10166      0.00000     0.39734    0.00100     0.39834
      H   33    0.10086      0.00000     0.39764    0.00150     0.39914
      H   34    0.09682      0.00000     0.40243    0.00075     0.40318
      H   35    0.09617      0.00000     0.40301    0.00082     0.40383
      H   36    0.10127      0.00000     0.39751    0.00122     0.39873
      H   37    0.11659      0.00000     0.38216    0.00125     0.38341
      H   38    0.09608      0.00000     0.40277    0.00116     0.40392
      H   39    0.09760      0.00000     0.40078    0.00162     0.40240
 =======================================================================
   * Total *    0.00006     21.99229    48.78387    0.22378    70.99994

 Normal termination of Gaussian 16 at Fri Dec 11 22:24:02 2020.
