 Gaussian 16, Revision A.03,

 -----------------------------------------------------------
 # opt freq B3LYP/6-31G(d) empiricaldispersion=gd3bj scf=xqc
 -----------------------------------------------------------

 ------------------------------
 CID_68895216_JID_8262_neutraal
 ------------------------------
 Symbolic Z-matrix:
 Charge =  0 Multiplicity = 1

 SCF Done:  E(RB3LYP) =  -838.805759849     A.U. after   15 cycles
 SCF Done:  E(RB3LYP) =  -838.804220109     A.U. after   15 cycles
 SCF Done:  E(RB3LYP) =  -838.810956674     A.U. after   13 cycles
 SCF Done:  E(RB3LYP) =  -838.810862260     A.U. after   14 cycles
 SCF Done:  E(RB3LYP) =  -838.810834700     A.U. after   13 cycles
 SCF Done:  E(RB3LYP) =  -838.806142029     A.U. after   13 cycles
 SCF Done:  E(RB3LYP) =  -838.804708260     A.U. after   12 cycles
 SCF Done:  E(RB3LYP) =  -838.811471105     A.U. after   10 cycles
 SCF Done:  E(RB3LYP) =  -838.813259191     A.U. after   12 cycles
 SCF Done:  E(RB3LYP) =  -838.813119462     A.U. after   13 cycles
 SCF Done:  E(RB3LYP) =  -838.814420274     A.U. after    9 cycles
 SCF Done:  E(RB3LYP) =  -838.814421407     A.U. after    8 cycles
 SCF Done:  E(RB3LYP) =  -838.814421825     A.U. after    8 cycles
 SCF Done:  E(RB3LYP) =  -838.814422030     A.U. after    7 cycles
 SCF Done:  E(RB3LYP) =  -838.814422121     A.U. after    7 cycles
 Optimization completed.
    -- Stationary point found.
 Normal termination of Gaussian 16 at Fri Dec 11 20:00:39 2020.

 --------------------------------------------------------------------
 #N Geom=AllCheck Guess=TCheck SCRF=Check GenChk RB3LYP/6-31G(d) Freq
 --------------------------------------------------------------------

 Structure from the checkpoint file:  "JID_8262.chk"
 ------------------------------
 CID_68895216_JID_8262_neutraal
 ------------------------------
 Charge =  0 Multiplicity = 1

 SCF Done:  E(RB3LYP) =  -838.814422121     A.U. after    1 cycles

  Exact polarizability: 171.346   5.894 152.143  -3.650   7.187 134.122
 Approx polarizability: 245.042  13.112 227.575  -9.248  20.253 210.607

                      1                      2                      3
                      A                      A                      A
 Frequencies --     29.2287                50.4935                75.9195
 Red. masses --      5.3567                 4.2448                 6.1647
 Frc consts  --      0.0027                 0.0064                 0.0209
 IR Inten    --      0.1225                 1.3336                 0.8432

                      4                      5                      6
                      A                      A                      A
 Frequencies --     87.4412                98.4184               107.3806
 Red. masses --      4.8931                 5.0148                 4.2069
 Frc consts  --      0.0220                 0.0286                 0.0286
 IR Inten    --      6.7993                 0.0838                 1.4693

                      7                      8                      9
                      A                      A                      A
 Frequencies --    111.9347               132.2597               162.1981
 Red. masses --      5.1623                 3.9900                 5.1039
 Frc consts  --      0.0381                 0.0411                 0.0791
 IR Inten    --      4.0108                 3.4399                 6.6959

                     10                     11                     12
                      A                      A                      A
 Frequencies --    190.6064               215.5426               252.4102
 Red. masses --      3.8630                 3.1539                 3.7373
 Frc consts  --      0.0827                 0.0863                 0.1403
 IR Inten    --      0.1736                 2.3875                 2.3134

                     13                     14                     15
                      A                      A                      A
 Frequencies --    280.9445               299.7729               323.5864
 Red. masses --      2.7416                 3.0725                 2.7973
 Frc consts  --      0.1275                 0.1627                 0.1726
 IR Inten    --     22.5988                 1.4273                 8.9708

                     16                     17                     18
                      A                      A                      A
 Frequencies --    352.4081               353.7893               372.0388
 Red. masses --      1.6649                 3.5714                 1.6625
 Frc consts  --      0.1218                 0.2634                 0.1356
 IR Inten    --    156.3205                17.8403                79.7337

                     19                     20                     21
                      A                      A                      A
 Frequencies --    379.1048               426.0964               433.9151
 Red. masses --      2.2639                 2.2642                 3.5566
 Frc consts  --      0.1917                 0.2422                 0.3945
 IR Inten    --      8.6232                 1.9127                 2.1684

                     22                     23                     24
                      A                      A                      A
 Frequencies --    462.0248               483.8141               497.6406
 Red. masses --      2.3805                 2.6373                 2.6897
 Frc consts  --      0.2994                 0.3637                 0.3925
 IR Inten    --      3.6481                 2.2645                27.0465

                     25                     26                     27
                      A                      A                      A
 Frequencies --    508.3765               537.3081               558.1158
 Red. masses --      2.5902                 2.1852                 1.4200
 Frc consts  --      0.3944                 0.3717                 0.2606
 IR Inten    --      9.1966                27.9238               107.5635

                     28                     29                     30
                      A                      A                      A
 Frequencies --    577.7200               604.4277               621.7868
 Red. masses --      2.1024                 1.5537                 2.5916
 Frc consts  --      0.4134                 0.3344                 0.5903
 IR Inten    --     16.6861                 6.2008                19.3930

                     31                     32                     33
                      A                      A                      A
 Frequencies --    634.0520               655.4988               692.0039
 Red. masses --      1.8169                 1.6661                 1.5802
 Frc consts  --      0.4304                 0.4218                 0.4459
 IR Inten    --     46.0389                37.0534                 6.3256

                     34                     35                     36
                      A                      A                      A
 Frequencies --    706.1841               766.2018               787.3879
 Red. masses --      1.2788                 3.0525                 2.7085
 Frc consts  --      0.3757                 1.0558                 0.9894
 IR Inten    --      3.1805                 2.1205                 6.2684

                     37                     38                     39
                      A                      A                      A
 Frequencies --    792.2409               819.8228               821.9709
 Red. masses --      1.8498                 2.0813                 3.4121
 Frc consts  --      0.6841                 0.8242                 1.3583
 IR Inten    --      4.1751               147.7448                 4.8908

                     40                     41                     42
                      A                      A                      A
 Frequencies --    828.8072               865.3882               886.2097
 Red. masses --      2.8351                 1.7312                 2.1185
 Frc consts  --      1.1474                 0.7639                 0.9803
 IR Inten    --     27.8403                 7.2981                20.6130

                     43                     44                     45
                      A                      A                      A
 Frequencies --    930.2664               946.8553               954.5865
 Red. masses --      1.8809                 1.8853                 1.8077
 Frc consts  --      0.9590                 0.9959                 0.9705
 IR Inten    --     11.6830                21.4909                 9.4764

                     46                     47                     48
                      A                      A                      A
 Frequencies --    966.1518               967.2341               990.2888
 Red. masses --      1.4637                 1.4565                 2.0460
 Frc consts  --      0.8050                 0.8028                 1.1822
 IR Inten    --     10.9978                28.1429                 3.8572

                     49                     50                     51
                      A                      A                      A
 Frequencies --    999.2873              1029.8163              1043.7324
 Red. masses --      2.3087                 2.4594                 2.0370
 Frc consts  --      1.3583                 1.5367                 1.3074
 IR Inten    --      0.8728                13.3996                 9.5853

                     52                     53                     54
                      A                      A                      A
 Frequencies --   1103.5430              1112.9607              1126.5391
 Red. masses --      2.2902                 1.8675                 2.1641
 Frc consts  --      1.6432                 1.3629                 1.6182
 IR Inten    --      3.5538                 2.8339                 8.7870

                     55                     56                     57
                      A                      A                      A
 Frequencies --   1132.9008              1148.8616              1162.6094
 Red. masses --      1.8277                 4.3894                 2.1103
 Frc consts  --      1.3821                 3.4134                 1.6806
 IR Inten    --      7.7074                22.9775                15.0545

                     58                     59                     60
                      A                      A                      A
 Frequencies --   1198.1085              1224.4483              1238.7415
 Red. masses --      1.8852                 2.1047                 1.4170
 Frc consts  --      1.5944                 1.8592                 1.2811
 IR Inten    --     23.3049                27.1059                 5.2128

                     61                     62                     63
                      A                      A                      A
 Frequencies --   1243.3023              1274.6493              1312.4691
 Red. masses --      2.6152                 1.2737                 1.2737
 Frc consts  --      2.3819                 1.2193                 1.2927
 IR Inten    --     22.2239                 2.7986                 5.5595

                     64                     65                     66
                      A                      A                      A
 Frequencies --   1331.3602              1356.8390              1374.1673
 Red. masses --      1.3687                 1.2805                 2.5411
 Frc consts  --      1.4294                 1.3889                 2.8271
 IR Inten    --      8.5711                11.1155                86.3755

                     67                     68                     69
                      A                      A                      A
 Frequencies --   1382.8628              1387.7380              1394.7817
 Red. masses --      1.5936                 1.4023                 1.2856
 Frc consts  --      1.7955                 1.5911                 1.4736
 IR Inten    --     63.0495                12.8310                14.5551

                     70                     71                     72
                      A                      A                      A
 Frequencies --   1402.2910              1411.0761              1419.8663
 Red. masses --      2.5040                 1.6255                 1.3658
 Frc consts  --      2.9011                 1.9069                 1.6223
 IR Inten    --     68.4568                 9.1853                 6.6341

                     73                     74                     75
                      A                      A                      A
 Frequencies --   1426.1973              1447.8402              1453.1224
 Red. masses --      1.3084                 1.3943                 1.2337
 Frc consts  --      1.5681                 1.7221                 1.5348
 IR Inten    --      4.7738                17.4964                27.2974

                     76                     77                     78
                      A                      A                      A
 Frequencies --   1475.8873              1496.6103              1499.4999
 Red. masses --      1.2670                 1.0991                 1.0945
 Frc consts  --      1.6260                 1.4504                 1.4500
 IR Inten    --     19.4703                 7.7254                13.6838

                     79                     80                     81
                      A                      A                      A
 Frequencies --   1504.9010              1510.8435              1514.8644
 Red. masses --      1.0947                 1.1256                 1.1542
 Frc consts  --      1.4607                 1.5138                 1.5606
 IR Inten    --     11.0745                 5.6271                 2.2355

                     82                     83                     84
                      A                      A                      A
 Frequencies --   1525.3334              1640.7667              1681.9258
 Red. masses --      1.0966                 1.2996                 1.2497
 Frc consts  --      1.5032                 2.0613                 2.0829
 IR Inten    --      3.3934                85.8263               101.4616

                     85                     86                     87
                      A                      A                      A
 Frequencies --   1699.5758              1708.0416              1757.7032
 Red. masses --      4.8376                 5.5490                 7.2317
 Frc consts  --      8.2331                 9.5380                13.1638
 IR Inten    --     53.2265                71.3329               404.6914

                     88                     89                     90
                      A                      A                      A
 Frequencies --   1784.1308              2960.0619              2985.6896
 Red. masses --      6.2012                 1.0821                 1.0705
 Frc consts  --     11.6299                 5.5861                 5.6227
 IR Inten    --    170.0106                38.8639                67.7995

                     91                     92                     93
                      A                      A                      A
 Frequencies --   3035.3460              3045.9366              3047.6695
 Red. masses --      1.0744                 1.0596                 1.0722
 Frc consts  --      5.8320                 5.7921                 5.8676
 IR Inten    --     12.0096                59.5912                23.3634

                     94                     95                     96
                      A                      A                      A
 Frequencies --   3049.7059              3078.4554              3091.2638
 Red. masses --      1.0612                 1.0915                 1.1057
 Frc consts  --      5.8152                 6.0943                 6.2252
 IR Inten    --     35.3385                46.5141                18.0034

                     97                     98                     99
                      A                      A                      A
 Frequencies --   3093.3268              3151.1503              3154.4983
 Red. masses --      1.1055                 1.0869                 1.0877
 Frc consts  --      6.2325                 6.3587                 6.3770
 IR Inten    --     81.4374                 1.5253                 4.1770

                    100                    101                    102
                      A                      A                      A
 Frequencies --   3161.7098              3183.6591              3240.7445
 Red. masses --      1.0595                 1.0588                 1.1163
 Frc consts  --      6.2403                 6.3231                 6.9072
 IR Inten    --      6.5069                 7.5993                 7.9545

                    103                    104                    105
                      A                      A                      A
 Frequencies --   3270.6496              3455.6904              3521.1742
 Red. masses --      1.1169                 1.0735                 1.0528
 Frc consts  --      7.0391                 7.5532                 7.6910
 IR Inten    --      3.8337                 3.9931               277.2181

                    106                    107                    108
                      A                      A                      A
 Frequencies --   3587.8741              3666.1486              3715.0668
 Red. masses --      1.0460                 1.0984                 1.1041
 Frc consts  --      7.9331                 8.6981                 8.9779
 IR Inten    --     44.6300               116.2002                34.7783

 - Thermochemistry -
 -------------------
 Temperature   298.150 Kelvin.  Pressure   1.00000 Atm.
 Atom     1 has atomic number  6 and mass  12.00000

 Molecular mass:   252.15863 amu.
 Principal axes and moments of inertia in atomic units:
                           1         2         3
     Eigenvalues --  3111.025855407.431666717.95333
           X            0.99998  -0.00097  -0.00548
           Y            0.00097   1.00000   0.00028
           Z            0.00548  -0.00029   0.99998
 This molecule is an asymmetric top.
 Rotational symmetry number  1.
 Warning -- assumption of classical behavior for rotation
           may cause significant error
 Rotational temperatures (Kelvin)      0.02784     0.01602     0.01289
 Rotational constants (GHZ):           0.58011     0.33375     0.26864
 Zero-point vibrational energy     861513.9 (Joules/Mol)
                                  205.90676 (Kcal/Mol)
 Warning -- explicit consideration of  29 degrees of freedom as
           vibrations may cause significant error
 Vibrational temperatures:     42.05    72.65   109.23   125.81   141.60
          (Kelvin)            154.50   161.05   190.29   233.37   274.24
                              310.12   363.16   404.22   431.31   465.57
                              507.04   509.02   535.28   545.45   613.06
                              624.31   664.75   696.10   715.99   731.44
                              773.07   803.00   831.21   869.64   894.61
                              912.26   943.12   995.64  1016.04  1102.39
                             1132.88  1139.86  1179.54  1182.63  1192.47
                             1245.10  1275.06  1338.45  1362.31  1373.44
                             1390.08  1391.63  1424.80  1437.75  1481.68
                             1501.70  1587.75  1601.30  1620.84  1629.99
                             1652.96  1672.74  1723.81  1761.71  1782.27
                             1788.83  1833.94  1888.35  1915.53  1952.19
                             1977.12  1989.63  1996.65  2006.78  2017.58
                             2030.22  2042.87  2051.98  2083.12  2090.72
                             2123.47  2153.29  2157.45  2165.22  2173.77
                             2179.55  2194.61  2360.70  2419.92  2445.31
                             2457.49  2528.94  2566.97  4258.87  4295.74
                             4367.19  4382.42  4384.92  4387.85  4429.21
                             4447.64  4450.61  4533.80  4538.62  4549.00
                             4580.58  4662.71  4705.74  4971.97  5066.18
                             5162.15  5274.77  5345.15

 Zero-point correction=                           0.328133 (Hartree/Particle)
 Thermal correction to Energy=                    0.346079
 Thermal correction to Enthalpy=                  0.347023
 Thermal correction to Gibbs Free Energy=         0.282577
 Sum of electronic and zero-point Energies=           -838.486289
 Sum of electronic and thermal Energies=              -838.468343
 Sum of electronic and thermal Enthalpies=            -838.467399
 Sum of electronic and thermal Free Energies=         -838.531845

                     E (Thermal)             CV                S
                      KCal/Mol        Cal/Mol-Kelvin    Cal/Mol-Kelvin
 Total                  217.168             70.098            135.638
 Electronic               0.000              0.000              0.000
 Translational            0.889              2.981             42.475
 Rotational               0.889              2.981             33.091
 Vibrational            215.390             64.137             60.072
 Vibration     1          0.593              1.984              5.881
 Vibration     2          0.595              1.977              4.798
 Vibration     3          0.599              1.965              3.994
 Vibration     4          0.601              1.958              3.717
 Vibration     5          0.604              1.950              3.485
 Vibration     6          0.606              1.943              3.316
 Vibration     7          0.607              1.940              3.235
 Vibration     8          0.612              1.921              2.913
 Vibration     9          0.622              1.889              2.524
 Vibration    10          0.634              1.853              2.222
 Vibration    11          0.645              1.817              1.996
 Vibration    12          0.664              1.759              1.714
 Vibration    13          0.681              1.709              1.528
 Vibration    14          0.692              1.674              1.418
 Vibration    15          0.708              1.628              1.292
 Vibration    16          0.729              1.570              1.155
 Vibration    17          0.730              1.567              1.149
 Vibration    18          0.744              1.530              1.071
 Vibration    19          0.749              1.515              1.043
 Vibration    20          0.788              1.413              0.872
 Vibration    21          0.795              1.396              0.846
 Vibration    22          0.820              1.334              0.760
 Vibration    23          0.840              1.286              0.700
 Vibration    24          0.853              1.255              0.664
 Vibration    25          0.864              1.231              0.638
 Vibration    26          0.892              1.168              0.571
 Vibration    27          0.914              1.122              0.528
 Vibration    28          0.934              1.079              0.490
 Vibration    29          0.963              1.022              0.442

                           ! Non-Optimized Parameters !
 Normal termination of Gaussian 16 at Fri Dec 11 20:20:37 2020.

 ----------------------------------------------------------------------
 # B3LYP/6-311++G(d,p) empiricaldispersion=gd3bj scf=xqc pop=npa geom=c
 heck
 ----------------------------------------------------------------------

 --------------------------------------
 CID_68895216_JID_8262_Energie_neutraal
 --------------------------------------
 Structure from the checkpoint file:  "JID_8262.chk"
 Charge =  0 Multiplicity = 1

 SCF Done:  E(RB3LYP) =  -839.069185820     A.U. after   16 cycles
 Normal termination of Gaussian 16 at Fri Dec 11 20:28:42 2020.

 ----------------------------------------------------------------------
 # B3LYP/6-311++G(d,p) empiricaldispersion=gd3bj scf=xqc pop=npa geom=c
 heck
 ----------------------------------------------------------------------

 ------------------------------------
 CID_68895216_JID_8262_Energie_kation
 ------------------------------------
 Structure from the checkpoint file:  "JID_8262.chk"
 Charge =  1 Multiplicity = 2

 SCF Done:  E(UB3LYP) =  -838.801379513     A.U. after   23 cycles
 Normal termination of Gaussian 16 at Fri Dec 11 20:44:33 2020.
 Gaussian 16:  ES64L-G16RevA.03 25-Dec-2016

 ----------------------------------------------------------------------
 # B3LYP/6-311++G(d,p) empiricaldispersion=gd3bj scf=xqc pop=npa geom=c
 heck
 ----------------------------------------------------------------------

 -----------------------------------
 CID_68895216_JID_8262_Energie_anion
 -----------------------------------
 Structure from the checkpoint file:  "JID_8262.chk"
 Charge = -1 Multiplicity = 2

                         Standard orientation:
 ---------------------------------------------------------------------
 Center     Atomic      Atomic             Coordinates (Angstroms)
 Number     Number       Type             X           Y           Z
 ---------------------------------------------------------------------
      1          6           0       -2.579563   -1.892786   -0.721114
      2          6           0       -2.356653   -0.848544    0.082801
      3          6           0       -1.172319   -0.759621    1.024910
      4          6           0        0.121239   -1.433080    0.555808
      5          6           0        1.245286   -1.233427    1.595286
      6          7           0        2.517653   -1.860034    1.219270
      7          6           0        2.919955   -1.480619   -0.139493
      8          6           0        1.801063   -1.688221   -1.173517
      9          7           0        0.547209   -1.051190   -0.794020
     10          6           0        0.298916    0.269815   -1.348196
     11          6           0        1.259583    1.392545   -0.977750
     12          6           0        2.196475    1.839004   -1.823308
     13          6           0        1.055746    2.073520    0.342361
     14          8           0       -0.066526    2.304028    0.796439
     15          7           0        2.182397    2.462119    1.003062
     16          6           0       -3.370861    0.272005    0.026895
     17          8           0       -4.513541    0.091378   -0.383083
     18          7           0       -2.947260    1.501333    0.457096
     19          1           0       -1.896359   -2.733498   -0.780083
     20          1           0       -3.467886   -1.912641   -1.343173
     21          1           0       -0.952456    0.276878    1.281299
     22          1           0       -1.450675   -1.232499    1.977370
     23          1           0       -0.054524   -2.521983    0.504820
     24          1           0        0.934799   -1.638926    2.566117
     25          1           0        1.427557   -0.160937    1.738838
     26          1           0        2.397864   -2.873446    1.248572
     27          1           0        3.206364   -0.422048   -0.121033
     28          1           0        3.812266   -2.056531   -0.413897
     29          1           0        1.620982   -2.771563   -1.275511
     30          1           0        2.104238   -1.317560   -2.159964
     31          1           0        0.321457    0.169629   -2.440488
     32          1           0       -0.715286    0.573453   -1.086325
     33          1           0        2.855753    2.667709   -1.580369
     34          1           0        2.306539    1.405150   -2.814147
     35          1           0        3.082862    2.076634    0.761560
     36          1           0        2.067511    2.868258    1.922085
     37          1           0       -1.968513    1.759302    0.543976
     38          1           0       -3.605151    2.252226    0.297555
 ---------------------------------------------------------------------

 SCF Done:  E(UB3LYP) =  -839.074859489     A.U. after   33 cycles
 SCF Done:  E(UB3LYP) =  -839.074859489     a.u. after    1 cycles

 The electronic state is 2-A.
 Alpha  occ. eigenvalues --  -18.97386 -18.95550 -14.21203 -14.20277 -14.19531
 Alpha  occ. eigenvalues --  -14.18626 -10.16154 -10.12814 -10.09484 -10.08338
 Alpha  occ. eigenvalues --  -10.08231 -10.07820 -10.07610 -10.07375 -10.06524
 Alpha  occ. eigenvalues --  -10.05749 -10.03043 -10.02112  -0.92387  -0.90623
 Alpha  occ. eigenvalues --   -0.83080  -0.78739  -0.78131  -0.77674  -0.70361
 Alpha  occ. eigenvalues --   -0.66088  -0.65383  -0.60078  -0.57443  -0.53400
 Alpha  occ. eigenvalues --   -0.52686  -0.50659  -0.49714  -0.46081  -0.44458
 Alpha  occ. eigenvalues --   -0.42780  -0.41099  -0.40289  -0.38411  -0.37972
 Alpha  occ. eigenvalues --   -0.37300  -0.34432  -0.34290  -0.33794  -0.33140
 Alpha  occ. eigenvalues --   -0.32003  -0.31664  -0.30911  -0.30069  -0.29431
 Alpha  occ. eigenvalues --   -0.28924  -0.27544  -0.27420  -0.26890  -0.25771
 Alpha  occ. eigenvalues --   -0.24830  -0.24513  -0.23499  -0.22742  -0.22547
 Alpha  occ. eigenvalues --   -0.16436  -0.16145  -0.15353  -0.14899  -0.14218
 Alpha  occ. eigenvalues --   -0.13613  -0.13130  -0.08031   0.04551
 Alpha virt. eigenvalues --    0.06410   0.07241   0.08131   0.08567   0.09250
 Alpha virt. eigenvalues --    0.09887   0.10196   0.10693   0.10963   0.11522
 Alpha virt. eigenvalues --    0.12661   0.12956   0.13192   0.13589   0.13995

  Beta  occ. eigenvalues --  -18.97375 -18.95338 -14.21190 -14.20206 -14.19528
  Beta  occ. eigenvalues --  -14.18603 -10.16133 -10.12574 -10.09481 -10.08334
  Beta  occ. eigenvalues --  -10.08231 -10.07806 -10.07606 -10.07384 -10.06525
  Beta  occ. eigenvalues --  -10.05680 -10.02852 -10.01821  -0.92358  -0.90196
  Beta  occ. eigenvalues --   -0.83056  -0.78708  -0.78100  -0.77453  -0.70315
  Beta  occ. eigenvalues --   -0.65788  -0.65200  -0.59934  -0.57326  -0.53348
  Beta  occ. eigenvalues --   -0.52565  -0.50488  -0.49104  -0.46004  -0.44328
  Beta  occ. eigenvalues --   -0.42592  -0.41026  -0.40153  -0.38359  -0.37922
  Beta  occ. eigenvalues --   -0.37227  -0.34396  -0.34126  -0.33680  -0.33040
  Beta  occ. eigenvalues --   -0.31844  -0.31422  -0.30815  -0.29987  -0.29117
  Beta  occ. eigenvalues --   -0.28703  -0.27490  -0.27205  -0.26496  -0.25706
  Beta  occ. eigenvalues --   -0.24741  -0.24338  -0.23432  -0.22690  -0.22423
  Beta  occ. eigenvalues --   -0.16343  -0.15836  -0.14936  -0.14590  -0.13684
  Beta  occ. eigenvalues --   -0.13166  -0.12090  -0.07933
  Beta virt. eigenvalues --    0.06769   0.07212   0.08230   0.08645   0.09110
  Beta virt. eigenvalues --    0.09887   0.10149   0.10197   0.10900   0.11122
  Beta virt. eigenvalues --    0.11493   0.12855   0.12969   0.13270   0.13638

 Mulliken charges and spin densities:
               1          2
     1  C   -0.317991   0.054554
     2  C    0.643951   0.069266
     3  C   -0.885516  -0.030722
     4  C    0.080279  -0.030453
     5  C   -0.648547  -0.078177
     6  N   -0.082883   0.064026
     7  C    0.196793  -0.689754
     8  C   -0.061972   0.129500
     9  N    0.347382   0.011446
    10  C   -1.207154  -0.096217
    11  C    1.143825   0.526596
    12  C   -0.437998  -0.167118
    13  C   -0.626256  -0.008108
    14  O   -0.375840   0.077776
    15  N   -0.296870   0.054116
    16  C   -0.245400   0.000272
    17  O   -0.371659   0.004120
    18  N   -0.442887   0.005741
    19  H    0.130134   0.003880
    20  H    0.177515  -0.004021
    21  H    0.191077   0.012583
    22  H    0.180692   0.011403
    23  H    0.116039  -0.002031
    24  H    0.122875  -0.004082
    25  H    0.223448   0.075463
    26  H    0.219938   0.006506
    27  H   -0.171747   0.387215
    28  H   -0.104917   0.256524
    29  H    0.125909  -0.000414
    30  H    0.046896   0.081663
    31  H    0.163956   0.002406
    32  H    0.088251   0.028416
    33  H    0.118435   0.008789
    34  H    0.071033  -0.001184
    35  H    0.055137   0.194281
    36  H    0.198388   0.051838
    37  H    0.356305  -0.005729
    38  H    0.279376  -0.000369
 Sum of Mulliken charges =  -1.00000   1.00000

 Dipole moment (field-independent basis, Debye):
    X=             -0.3375    Y=             -3.1376    Z=              1.4870  Tot=              3.4885
 Quadrupole moment (field-independent basis, Debye-Ang):
   XX=           -184.0147   YY=           -128.6865   ZZ=           -127.4484
   XY=             -5.9088   XZ=              0.1493   YZ=              2.1313

 Summary of Natural Population Analysis:

                                       Natural Population
                Natural  -----------------------------------------------
    Atom  No    Charge         Core      Valence    Rydberg      Total
 -----------------------------------------------------------------------
      C    1   -0.14593      0.99953     2.14041    0.00600     3.14593
      C    2   -0.05448      0.99947     2.04373    0.01128     3.05448
      C    3   -0.22198      0.99956     2.21304    0.00937     3.22198
      C    4   -0.00218      0.99958     1.98952    0.01308     3.00218
      C    5   -0.09788      0.99959     2.08542    0.01286     3.09788
      N    6   -0.33540      0.99977     2.82319    0.01245     3.83540
      C    7   -0.10282      0.99962     2.09036    0.01283     3.10282
      C    8   -0.08905      0.99962     2.07783    0.01159     3.08905
      N    9   -0.28220      0.99971     2.76954    0.01295     3.78220
      C   10   -0.09066      0.99956     2.07810    0.01300     3.09066
      C   11   -0.04199      0.99945     2.03208    0.01046     3.04199
      C   12   -0.12553      0.99953     2.11698    0.00902     3.12553
      C   13    0.36160      0.99961     1.61491    0.02388     2.63840
      O   14   -0.34157      0.99985     3.33590    0.00581     4.34157
      N   15   -0.39941      0.99970     2.89191    0.00780     3.89941
      C   16    0.32774      0.99963     1.65067    0.02196     2.67226
      O   17   -0.33530      0.99988     3.32856    0.00687     4.33530
      N   18   -0.40660      0.99970     2.90053    0.00637     3.90660
      H   19    0.09079      0.00000     0.40828    0.00092     0.40921
      H   20    0.10123      0.00000     0.39754    0.00124     0.39877
      H   21    0.12179      0.00000     0.37684    0.00137     0.37821
      H   22    0.10568      0.00000     0.39332    0.00101     0.39432
      H   23    0.08194      0.00000     0.41650    0.00156     0.41806
      H   24    0.08834      0.00000     0.41072    0.00093     0.41166
      H   25    0.09976      0.00000     0.39840    0.00184     0.40024
      H   26    0.16222      0.00000     0.33600    0.00178     0.33778
      H   27    0.10217      0.00000     0.39566    0.00217     0.39783
      H   28    0.08881      0.00000     0.41015    0.00104     0.41119
      H   29    0.08088      0.00000     0.41792    0.00121     0.41912
      H   30    0.10043      0.00000     0.39847    0.00110     0.39957
      H   31    0.09157      0.00000     0.40737    0.00106     0.40843
      H   32    0.10507      0.00000     0.39325    0.00169     0.39493
      H   33    0.08987      0.00000     0.40925    0.00088     0.41013
      H   34    0.08318      0.00000     0.41580    0.00102     0.41682
      H   35    0.19687      0.00000     0.30058    0.00255     0.30313
      H   36    0.18760      0.00000     0.31070    0.00170     0.31240
      H   37    0.21702      0.00000     0.28163    0.00135     0.28298
      H   38    0.18842      0.00000     0.31008    0.00150     0.31158
 =======================================================================
   * Total *    0.00000     17.99338    49.77111    0.23551    68.00000

 Normal termination of Gaussian 16 at Fri Dec 11 21:07:17 2020.
