 Gaussian 16, Revision A.03,

 -----------------------------------------------------------
 # opt freq B3LYP/6-31G(d) empiricaldispersion=gd3bj scf=xqc
 -----------------------------------------------------------

 ------------------------------
 CID_10797032_JID_1415_neutraal
 ------------------------------
 Symbolic Z-matrix:
 Charge =  0 Multiplicity = 1

 SCF Done:  E(RB3LYP) =  -589.652510005     A.U. after   15 cycles
 SCF Done:  E(RB3LYP) =  -589.657880488     A.U. after   14 cycles
 SCF Done:  E(RB3LYP) =  -589.659895385     A.U. after   15 cycles
 SCF Done:  E(RB3LYP) =  -589.660507592     A.U. after   15 cycles
 SCF Done:  E(RB3LYP) =  -589.661094957     A.U. after   12 cycles
 SCF Done:  E(RB3LYP) =  -589.661230117     A.U. after   12 cycles
 SCF Done:  E(RB3LYP) =  -589.661300346     A.U. after   13 cycles
 SCF Done:  E(RB3LYP) =  -589.661389187     A.U. after   11 cycles
 SCF Done:  E(RB3LYP) =  -589.661401832     A.U. after   11 cycles
 SCF Done:  E(RB3LYP) =  -589.661404906     A.U. after   10 cycles
 SCF Done:  E(RB3LYP) =  -589.661406277     A.U. after    8 cycles
 SCF Done:  E(RB3LYP) =  -589.661406328     A.U. after    7 cycles
 SCF Done:  E(RB3LYP) =  -589.661406358     A.U. after    7 cycles
 SCF Done:  E(RB3LYP) =  -589.661406377     A.U. after    7 cycles
 SCF Done:  E(RB3LYP) =  -589.661406398     A.U. after    6 cycles
 SCF Done:  E(RB3LYP) =  -589.661406415     A.U. after    6 cycles
 Optimization completed.
    -- Stationary point found.
 Normal termination of Gaussian 16 at Tue Dec  8 19:58:22 2020.

 --------------------------------------------------------------------
 #N Geom=AllCheck Guess=TCheck SCRF=Check GenChk RB3LYP/6-31G(d) Freq
 --------------------------------------------------------------------

 Structure from the checkpoint file:  "JID_1415.chk"
 ------------------------------
 CID_10797032_JID_1415_neutraal
 ------------------------------
 Charge =  0 Multiplicity = 1

 SCF Done:  E(RB3LYP) =  -589.661406415     A.U. after    1 cycles

  Exact polarizability:  94.944  10.443  98.552  -0.953  -0.484  60.759
 Approx polarizability: 130.671  29.720 142.337  -6.279  -0.929  98.659

                      1                      2                      3
                      A                      A                      A
 Frequencies --     25.8696                57.6877                77.1022
 Red. masses --      4.8024                 2.3731                 2.1303
 Frc consts  --      0.0019                 0.0047                 0.0075
 IR Inten    --      1.9146                 3.5510                 3.5319

                      4                      5                      6
                      A                      A                      A
 Frequencies --     92.3260               104.2495               121.0918
 Red. masses --      2.9212                 1.3974                 2.4063
 Frc consts  --      0.0147                 0.0089                 0.0208
 IR Inten    --      0.6352                 0.1733                 1.4029

                      7                      8                      9
                      A                      A                      A
 Frequencies --    129.1503               137.8151               187.6238
 Red. masses --      2.2823                 1.2061                 2.9543
 Frc consts  --      0.0224                 0.0135                 0.0613
 IR Inten    --      1.5377                 0.1742                 1.9790

                     10                     11                     12
                      A                      A                      A
 Frequencies --    207.5751               271.7267               333.0948
 Red. masses --      5.4392                 4.9665                 3.6432
 Frc consts  --      0.1381                 0.2161                 0.2382
 IR Inten    --      2.0068                 5.7207                 1.9555

                     13                     14                     15
                      A                      A                      A
 Frequencies --    335.9033               362.0227               431.6599
 Red. masses --      5.6263                 4.0186                 8.5167
 Frc consts  --      0.3740                 0.3103                 0.9350
 IR Inten    --     18.5093                18.6042                 0.4256

                     16                     17                     18
                      A                      A                      A
 Frequencies --    534.7710               578.4463               634.3800
 Red. masses --      3.8805                 4.0590                 6.1222
 Frc consts  --      0.6538                 0.8002                 1.4516
 IR Inten    --      2.0999                43.9592                 9.7636

                     19                     20                     21
                      A                      A                      A
 Frequencies --    693.1083               741.6492               860.8232
 Red. masses --      4.9748                 6.6593                 5.5987
 Frc consts  --      1.4081                 2.1581                 2.4443
 IR Inten    --      1.3525                 4.4799                24.7590

                     22                     23                     24
                      A                      A                      A
 Frequencies --    948.1191               977.3170              1007.7206
 Red. masses --      5.9515                 2.6582                 5.1447
 Frc consts  --      3.1521                 1.4959                 3.0782
 IR Inten    --     20.4748                12.5817                36.0973

                     25                     26                     27
                      A                      A                      A
 Frequencies --   1056.1184              1086.1410              1118.0271
 Red. masses --      1.8138                 6.9460                 3.4298
 Frc consts  --      1.1919                 4.8279                 2.5260
 IR Inten    --      4.1154               390.2845               127.2541

                     28                     29                     30
                      A                      A                      A
 Frequencies --   1183.3813              1183.7841              1219.5391
 Red. masses --      1.2629                 1.2748                 1.5147
 Frc consts  --      1.0420                 1.0525                 1.3273
 IR Inten    --      0.8989                 1.2797                 0.8699

                     31                     32                     33
                      A                      A                      A
 Frequencies --   1226.3528              1285.7330              1349.5104
 Red. masses --      1.5574                 5.7857                 4.8910
 Frc consts  --      1.3800                 5.6352                 5.2480
 IR Inten    --      7.2456               211.7442               202.9406

                     34                     35                     36
                      A                      A                      A
 Frequencies --   1419.0063              1484.9678              1490.3771
 Red. masses --      1.4083                 1.1513                 1.1101
 Frc consts  --      1.6707                 1.4958                 1.4529
 IR Inten    --     55.1535                 2.7521                 7.9318

                     37                     38                     39
                      A                      A                      A
 Frequencies --   1491.4282              1496.7796              1507.8726
 Red. masses --      1.1545                 1.0474                 1.0495
 Frc consts  --      1.5131                 1.3826                 1.4060
 IR Inten    --     15.3140                 9.4039                 5.9060

                     40                     41                     42
                      A                      A                      A
 Frequencies --   1513.1307              1522.3025              1529.4008
 Red. masses --      1.0476                 1.0461                 1.0500
 Frc consts  --      1.4131                 1.4283                 1.4471
 IR Inten    --      6.7331                 8.1838                21.3976

                     43                     44                     45
                      A                      A                      A
 Frequencies --   1689.8313              1785.4534              1838.8464
 Red. masses --     11.9024                11.0965                11.9905
 Frc consts  --     20.0250                20.8418                23.8880
 IR Inten    --     37.9645               147.3871               225.2039

                     46                     47                     48
                      A                      A                      A
 Frequencies --   3059.7828              3068.8894              3081.2299
 Red. masses --      1.0303                 1.0358                 1.0293
 Frc consts  --      5.6830                 5.7479                 5.7575
 IR Inten    --     62.4437                 0.8861                25.7096

                     49                     50                     51
                      A                      A                      A
 Frequencies --   3131.6021              3134.2273              3159.1460
 Red. masses --      1.0995                 1.1086                 1.1079
 Frc consts  --      6.3532                 6.4161                 6.5147
 IR Inten    --      4.2400                29.6315                15.1872

                     52                     53                     54
                      A                      A                      A
 Frequencies --   3174.7163              3175.6388              3191.8606
 Red. masses --      1.1046                 1.1044                 1.1075
 Frc consts  --      6.5596                 6.5620                 6.6476
 IR Inten    --     15.5966                 7.1135                14.7328

 - Thermochemistry -
 -------------------
 Temperature   298.150 Kelvin.  Pressure   1.00000 Atm.
 Atom     1 has atomic number  6 and mass  12.00000

 Molecular mass:   159.05316 amu.
 Principal axes and moments of inertia in atomic units:
                           1         2         3
     Eigenvalues --  1622.195631778.725122992.48395
           X            0.99477  -0.10186   0.00734
           Y            0.10187   0.99480  -0.00138
           Z           -0.00716   0.00212   0.99997
 This molecule is an asymmetric top.
 Rotational symmetry number  1.
 Warning -- assumption of classical behavior for rotation
           may cause significant error
 Rotational temperatures (Kelvin)      0.05339     0.04869     0.02894
 Rotational constants (GHZ):           1.11253     1.01463     0.60309
 Zero-point vibrational energy     403777.4 (Joules/Mol)
                                   96.50512 (Kcal/Mol)
 Warning -- explicit consideration of  17 degrees of freedom as
           vibrations may cause significant error
 Vibrational temperatures:     37.22    83.00   110.93   132.84   149.99
          (Kelvin)            174.22   185.82   198.29   269.95   298.65
                              390.95   479.25   483.29   520.87   621.06
                              769.42   832.26   912.73   997.23  1067.07
                             1238.53  1364.13  1406.14  1449.89  1519.52
                             1562.71  1608.59  1702.62  1703.20  1754.64
                             1764.45  1849.88  1941.64  2041.63  2136.54
                             2144.32  2145.83  2153.53  2169.49  2177.06
                             2190.25  2200.47  2431.29  2568.87  2645.69
                             4402.34  4415.45  4433.20  4505.68  4509.45
                             4545.31  4567.71  4569.04  4592.38

 Zero-point correction=                           0.153791 (Hartree/Particle)
 Thermal correction to Energy=                    0.166722
 Thermal correction to Enthalpy=                  0.167667
 Thermal correction to Gibbs Free Energy=         0.112788
 Sum of electronic and zero-point Energies=           -589.507616
 Sum of electronic and thermal Energies=              -589.494684
 Sum of electronic and thermal Enthalpies=            -589.493740
 Sum of electronic and thermal Free Energies=         -589.548618

                     E (Thermal)             CV                S
                      KCal/Mol        Cal/Mol-Kelvin    Cal/Mol-Kelvin
 Total                  104.620             42.450            115.501
 Electronic               0.000              0.000              0.000
 Translational            0.889              2.981             41.101
 Rotational               0.889              2.981             30.536
 Vibrational            102.842             36.489             43.864
 Vibration     1          0.593              1.985              6.123
 Vibration     2          0.596              1.974              4.535
 Vibration     3          0.599              1.964              3.963
 Vibration     4          0.602              1.955              3.610
 Vibration     5          0.605              1.946              3.373
 Vibration     6          0.609              1.932              3.083
 Vibration     7          0.612              1.924              2.959
 Vibration     8          0.614              1.916              2.834
 Vibration     9          0.632              1.857              2.251
 Vibration    10          0.641              1.829              2.065
 Vibration    11          0.675              1.725              1.585
 Vibration    12          0.715              1.609              1.245
 Vibration    13          0.717              1.604              1.232
 Vibration    14          0.736              1.550              1.113
 Vibration    15          0.793              1.401              0.853
 Vibration    16          0.890              1.173              0.577
 Vibration    17          0.935              1.078              0.488

 Optimization completed.
    -- Stationary point found.
 Normal termination of Gaussian 16 at Tue Dec  8 20:01:55 2020.

 ----------------------------------------------------------------------
 # B3LYP/6-311++G(d,p) empiricaldispersion=gd3bj scf=xqc pop=npa geom=c
 heck
 ----------------------------------------------------------------------

 --------------------------------------
 CID_10797032_JID_1415_Energie_neutraal
 --------------------------------------
 Structure from the checkpoint file:  "JID_1415.chk"
 Charge =  0 Multiplicity = 1

 SCF Done:  E(RB3LYP) =  -589.840032662     A.U. after   15 cycles
 Normal termination of Gaussian 16 at Tue Dec  8 20:04:00 2020.

 ----------------------------------------------------------------------
 # B3LYP/6-311++G(d,p) empiricaldispersion=gd3bj scf=xqc pop=npa geom=c
 heck
 ----------------------------------------------------------------------

 ------------------------------------
 CID_10797032_JID_1415_Energie_kation
 ------------------------------------
 Structure from the checkpoint file:  "JID_1415.chk"
 Charge =  1 Multiplicity = 2

 SCF Done:  E(UB3LYP) =  -589.493211619     A.U. after   27 cycles
 Normal termination of Gaussian 16 at Tue Dec  8 20:07:50 2020.
 Gaussian 16:  ES64L-G16RevA.03 25-Dec-2016

 ----------------------------------------------------------------------
 # B3LYP/6-311++G(d,p) empiricaldispersion=gd3bj scf=xqc pop=npa geom=c
 heck
 ----------------------------------------------------------------------

 -----------------------------------
 CID_10797032_JID_1415_Energie_anion
 -----------------------------------
 Structure from the checkpoint file:  "JID_1415.chk"
 Charge = -1 Multiplicity = 2

                         Standard orientation:
 ---------------------------------------------------------------------
 Center     Atomic      Atomic             Coordinates (Angstroms)
 Number     Number       Type             X           Y           Z
 ---------------------------------------------------------------------
      1          6           0        1.926882   -2.358791   -0.248572
      2          6           0        0.537180   -1.813800   -0.015090
      3          8           0       -0.448152   -2.522562    0.103570
      4          6           0        0.365734   -0.331845    0.069557
      5          7           0        1.401140    0.414819   -0.066456
      6          8           0        1.089765    1.753111    0.013105
      7          6           0        2.281561    2.533534   -0.112622
      8          6           0       -1.023540    0.183605    0.364363
      9          8           0       -1.425926    0.417878    1.478421
     10          8           0       -1.727123    0.325427   -0.766281
     11          6           0       -3.084758    0.770706   -0.584767
     12          1           0        1.878617   -3.448555   -0.275336
     13          1           0        2.604913   -2.030149    0.545942
     14          1           0        2.334243   -1.976607   -1.190473
     15          1           0        2.975857    2.311677    0.703825
     16          1           0        2.765971    2.345563   -1.075991
     17          1           0        1.949339    3.571197   -0.052675
     18          1           0       -3.507794    0.826569   -1.587231
     19          1           0       -3.635601    0.055061    0.030104
     20          1           0       -3.100401    1.750234   -0.100701
 ---------------------------------------------------------------------

 SCF Done:  E(UB3LYP) =  -589.857495818     A.U. after   26 cycles

 The electronic state is 2-A.
 Alpha  occ. eigenvalues --  -19.03550 -19.00999 -18.96935 -18.90375 -14.16703
 Alpha  occ. eigenvalues --  -10.15701 -10.10643 -10.08944 -10.05361 -10.01915
 Alpha  occ. eigenvalues --  -10.01028  -0.97363  -0.93929  -0.88313  -0.84881
 Alpha  occ. eigenvalues --   -0.71173  -0.61326  -0.58151  -0.54932  -0.48876
 Alpha  occ. eigenvalues --   -0.43834  -0.39656  -0.37221  -0.35345  -0.34347
 Alpha  occ. eigenvalues --   -0.33142  -0.32139  -0.31070  -0.28545  -0.27710
 Alpha  occ. eigenvalues --   -0.26768  -0.25078  -0.24631  -0.23062  -0.22584
 Alpha  occ. eigenvalues --   -0.21770  -0.19129  -0.17366  -0.15466  -0.11141
 Alpha  occ. eigenvalues --   -0.10116  -0.07128   0.05200
 Alpha virt. eigenvalues --    0.08337   0.08947   0.10755   0.11805   0.12290
 Alpha virt. eigenvalues --    0.12778   0.13281   0.14150   0.14971   0.15005
 Alpha virt. eigenvalues --    0.15113   0.16783   0.18052   0.18530   0.19180

  Beta  occ. eigenvalues --  -19.03541 -19.00885 -18.96915 -18.89744 -14.15839
  Beta  occ. eigenvalues --  -10.15710 -10.10624 -10.08944 -10.05057 -10.01782
  Beta  occ. eigenvalues --  -10.01059  -0.97323  -0.93384  -0.88269  -0.83773
  Beta  occ. eigenvalues --   -0.70335  -0.61223  -0.57808  -0.54812  -0.48274
  Beta  occ. eigenvalues --   -0.43428  -0.39417  -0.36897  -0.35165  -0.34222
  Beta  occ. eigenvalues --   -0.32707  -0.31818  -0.30913  -0.28411  -0.26942
  Beta  occ. eigenvalues --   -0.26622  -0.24902  -0.24299  -0.22770  -0.21523
  Beta  occ. eigenvalues --   -0.20832  -0.17741  -0.16285  -0.15057  -0.10380
  Beta  occ. eigenvalues --   -0.07726  -0.06533
  Beta virt. eigenvalues --    0.08270   0.08879   0.10702   0.11749   0.12182
  Beta virt. eigenvalues --    0.12326   0.13190   0.14040   0.14221   0.15043
  Beta virt. eigenvalues --    0.15058   0.15317   0.16765   0.18034   0.18629

 Mulliken charges and spin densities:
               1          2
     1  C   -0.554177  -0.020719
     2  C    0.293251   0.207151
     3  O   -0.423861   0.213036
     4  C    0.067303   0.088932
     5  N   -0.408662   0.400403
     6  O    0.091050   0.020171
     7  C   -0.208774  -0.020926
     8  C   -0.484208   0.001843
     9  O   -0.238362   0.002330
    10  O    0.006167   0.001686
    11  C   -0.177421  -0.063865
    12  H    0.128714  -0.001460
    13  H    0.122537   0.019731
    14  H    0.115692   0.025241
    15  H    0.110266   0.017066
    16  H    0.097503   0.026716
    17  H    0.107829  -0.002008
    18  H    0.088948   0.033683
    19  H    0.148849   0.018064
    20  H    0.117357   0.032925
 Sum of Mulliken charges =  -1.00000   1.00000

 Dipole moment (field-independent basis, Debye):
    X=             -0.3533    Y=              4.5471    Z=             -1.8434  Tot=              4.9192
 Quadrupole moment (field-independent basis, Debye-Ang):
   XX=            -75.5309   YY=            -86.3059   ZZ=            -75.8778
   XY=             -2.0081   XZ=              4.2024   YZ=             -0.9283

 Summary of Natural Population Analysis:

                                       Natural Population
                Natural  -----------------------------------------------
    Atom  No    Charge         Core      Valence    Rydberg      Total
 -----------------------------------------------------------------------
      C    1   -0.32932      0.99964     2.32534    0.00435     3.32932
      C    2    0.29030      0.99966     1.68710    0.02293     2.70970
      O    3   -0.24595      0.99988     3.23920    0.00687     4.24595
      C    4    0.02430      0.99952     1.95926    0.01692     2.97570
      N    5    0.04754      0.99960     2.43644    0.01642     3.45246
      O    6   -0.22157      0.99989     3.20748    0.01421     4.22157
      C    7   -0.09179      0.99963     2.08286    0.00930     3.09179
      C    8    0.40970      0.99966     1.56244    0.02819     2.59030
      O    9   -0.30630      0.99986     3.30042    0.00602     4.30630
      O   10   -0.27151      0.99986     3.26219    0.00946     4.27151
      C   11   -0.10765      0.99961     2.09947    0.00857     3.10765
      H   12    0.09531      0.00000     0.40325    0.00144     0.40469
      H   13    0.10506      0.00000     0.39394    0.00100     0.39494
      H   14    0.10481      0.00000     0.39418    0.00101     0.39519
      H   15    0.07847      0.00000     0.41898    0.00255     0.42153
      H   16    0.07800      0.00000     0.41923    0.00277     0.42200
      H   17    0.07922      0.00000     0.41964    0.00114     0.42078
      H   18    0.08494      0.00000     0.41392    0.00114     0.41506
      H   19    0.08994      0.00000     0.40833    0.00172     0.41006
      H   20    0.08650      0.00000     0.41153    0.00197     0.41350
 =======================================================================
   * Total *    0.00000     10.99682    30.84521    0.15797    42.00000

 Normal termination of Gaussian 16 at Tue Dec  8 20:11:40 2020.
