 Gaussian 16, Revision A.03,

 -----------------------------------------------------------
 # opt freq B3LYP/6-31G(d) empiricaldispersion=gd3bj scf=xqc
 -----------------------------------------------------------

 ------------------------------
 CID_43326279_JID_9187_neutraal
 ------------------------------
 Symbolic Z-matrix:
 Charge =  0 Multiplicity = 1

 SCF Done:  E(RB3LYP) =  -862.293423649     A.U. after   14 cycles
 SCF Done:  E(RB3LYP) =  -862.298610168     A.U. after   13 cycles
 SCF Done:  E(RB3LYP) =  -862.299093551     A.U. after   12 cycles
 SCF Done:  E(RB3LYP) =  -862.299885357     A.U. after   12 cycles
 SCF Done:  E(RB3LYP) =  -862.300103139     A.U. after   11 cycles
 SCF Done:  E(RB3LYP) =  -862.300155417     A.U. after   11 cycles
 SCF Done:  E(RB3LYP) =  -862.300187878     A.U. after   10 cycles
 SCF Done:  E(RB3LYP) =  -862.300220821     A.U. after   10 cycles
 SCF Done:  E(RB3LYP) =  -862.300244995     A.U. after   10 cycles
 SCF Done:  E(RB3LYP) =  -862.300274453     A.U. after   10 cycles
 SCF Done:  E(RB3LYP) =  -862.300307205     A.U. after    9 cycles
 SCF Done:  E(RB3LYP) =  -862.300309273     A.U. after    9 cycles
 SCF Done:  E(RB3LYP) =  -862.300310225     A.U. after    9 cycles
 SCF Done:  E(RB3LYP) =  -862.300310421     A.U. after    8 cycles
 SCF Done:  E(RB3LYP) =  -862.300310461     A.U. after    7 cycles
 Optimization completed.
    -- Stationary point found.
 Normal termination of Gaussian 16 at Sun Dec 13 16:20:48 2020.

 --------------------------------------------------------------------
 #N Geom=AllCheck Guess=TCheck SCRF=Check GenChk RB3LYP/6-31G(d) Freq
 --------------------------------------------------------------------

 Structure from the checkpoint file:  "JID_9187.chk"
 ------------------------------
 CID_43326279_JID_9187_neutraal
 ------------------------------
 Charge =  0 Multiplicity = 1

 SCF Done:  E(RB3LYP) =  -862.300310461     A.U. after    1 cycles

  Exact polarizability: 180.821   4.305 179.325  35.868  -6.925 126.244
 Approx polarizability: 258.985   7.867 306.192  69.840  -4.685 214.638

                      1                      2                      3
                      A                      A                      A
 Frequencies --     21.9701                43.1574                58.2535
 Red. masses --      4.6896                 5.2340                 3.6173
 Frc consts  --      0.0013                 0.0057                 0.0072
 IR Inten    --      0.0920                 0.5922                 0.4416

                      4                      5                      6
                      A                      A                      A
 Frequencies --     75.1920                87.7694               101.3469
 Red. masses --      3.8802                 1.6047                 3.7218
 Frc consts  --      0.0129                 0.0073                 0.0225
 IR Inten    --      2.0671                 1.0404                 1.8879

                      7                      8                      9
                      A                      A                      A
 Frequencies --    114.0277               123.4516               155.4846
 Red. masses --      2.2833                 1.7459                 1.0972
 Frc consts  --      0.0175                 0.0157                 0.0156
 IR Inten    --      0.9246                 0.5532                 0.3397

                     10                     11                     12
                      A                      A                      A
 Frequencies --    161.5098               188.2133               212.9560
 Red. masses --      2.7775                 1.6756                 2.5852
 Frc consts  --      0.0427                 0.0350                 0.0691
 IR Inten    --      0.7746                 0.4589                 3.1185

                     13                     14                     15
                      A                      A                      A
 Frequencies --    243.0364               280.4313               337.1697
 Red. masses --      5.2129                 2.7335                 3.8826
 Frc consts  --      0.1814                 0.1267                 0.2601
 IR Inten    --      0.0366                 2.4366                 3.6653

                     16                     17                     18
                      A                      A                      A
 Frequencies --    340.6111               348.5033               356.4683
 Red. masses --      1.0992                 5.3830                 2.6254
 Frc consts  --      0.0751                 0.3852                 0.1966
 IR Inten    --    114.0166                 4.6601                 2.5547

                     19                     20                     21
                      A                      A                      A
 Frequencies --    372.9819               384.7948               433.1251
 Red. masses --      3.9203                 4.6284                 3.6754
 Frc consts  --      0.3213                 0.4038                 0.4062
 IR Inten    --      2.2553                 3.2113                 2.3159

                     22                     23                     24
                      A                      A                      A
 Frequencies --    437.4055               459.0947               472.9338
 Red. masses --      4.2900                 4.6166                 5.5723
 Frc consts  --      0.4836                 0.5733                 0.7343
 IR Inten    --      2.8221                 3.9830                 1.7848

                     25                     26                     27
                      A                      A                      A
 Frequencies --    495.0251               510.4468               539.0073
 Red. masses --      5.1289                 4.1890                 3.3069
 Frc consts  --      0.7405                 0.6431                 0.5661
 IR Inten    --      1.1710                 5.6931                 3.6804

                     28                     29                     30
                      A                      A                      A
 Frequencies --    555.7827               588.5335               656.9259
 Red. masses --      2.6551                 3.4692                 6.0771
 Frc consts  --      0.4832                 0.7080                 1.5452
 IR Inten    --     15.2586                 9.6509                 0.8150

                     31                     32                     33
                      A                      A                      A
 Frequencies --    659.9455               709.3346               733.2284
 Red. masses --      5.4192                 6.1221                 4.5107
 Frc consts  --      1.3906                 1.8149                 1.4288
 IR Inten    --      0.7967                 1.0365                10.0047

                     34                     35                     36
                      A                      A                      A
 Frequencies --    748.0582               773.3547               811.1007
 Red. masses --      5.0506                 5.0732                 1.6396
 Frc consts  --      1.6652                 1.7877                 0.6355
 IR Inten    --     20.3257                16.4607                 2.8691

                     37                     38                     39
                      A                      A                      A
 Frequencies --    817.9470               853.1806               864.4504
 Red. masses --      2.7238                 1.9526                 4.6792
 Frc consts  --      1.0737                 0.8374                 2.0602
 IR Inten    --     14.9850                40.7408                13.8564

                     40                     41                     42
                      A                      A                      A
 Frequencies --    890.6672               935.2896               940.4104
 Red. masses --      3.2307                 1.3561                 1.3544
 Frc consts  --      1.5100                 0.6989                 0.7057
 IR Inten    --      7.2761                 7.4676                 2.1682

                     43                     44                     45
                      A                      A                      A
 Frequencies --    952.7719               977.8825              1004.7616
 Red. masses --      1.3119                 2.2413                 6.5164
 Frc consts  --      0.7017                 1.2627                 3.8760
 IR Inten    --      0.7409                 3.1345               106.3995

                     46                     47                     48
                      A                      A                      A
 Frequencies --   1026.6671              1033.6169              1045.9809
 Red. masses --      1.7376                 2.3328                 3.9751
 Frc consts  --      1.0791                 1.4684                 2.5624
 IR Inten    --     16.3734                 2.7648                45.6705

                     49                     50                     51
                      A                      A                      A
 Frequencies --   1067.4265              1073.4835              1078.5111
 Red. masses --      1.9402                 1.5124                 1.5000
 Frc consts  --      1.3025                 1.0268                 1.0280
 IR Inten    --     12.1559                 4.9198                 2.4577

                     52                     53                     54
                      A                      A                      A
 Frequencies --   1121.7525              1131.7560              1186.8583
 Red. masses --      1.3008                 2.8841                 1.1356
 Frc consts  --      0.9644                 2.1765                 0.9425
 IR Inten    --     11.8983                43.1024                 0.2223

                     55                     56                     57
                      A                      A                      A
 Frequencies --   1190.9414              1209.0077              1218.1744
 Red. masses --      1.2534                 1.4041                 1.5815
 Frc consts  --      1.0474                 1.2093                 1.3828
 IR Inten    --      1.0067               159.7459                 0.8456

                     58                     59                     60
                      A                      A                      A
 Frequencies --   1240.3074              1251.4832              1283.6118
 Red. masses --      2.3722                 3.4854                 2.5449
 Frc consts  --      2.1501                 3.2163                 2.4705
 IR Inten    --     35.8016               152.4918                20.6894

                     61                     62                     63
                      A                      A                      A
 Frequencies --   1307.1006              1309.8788              1324.5766
 Red. masses --      2.8496                 4.2371                 1.9252
 Frc consts  --      2.8684                 4.2833                 1.9901
 IR Inten    --     91.5879                 9.1650                 4.3002

                     64                     65                     66
                      A                      A                      A
 Frequencies --   1325.5462              1330.1274              1376.6869
 Red. masses --      1.9114                 2.2825                 2.6297
 Frc consts  --      1.9788                 2.3793                 2.9364
 IR Inten    --      6.0452                 6.5074                34.0967

                     67                     68                     69
                      A                      A                      A
 Frequencies --   1412.5871              1439.1859              1441.7453
 Red. masses --      1.3940                 2.6687                 1.3577
 Frc consts  --      1.6389                 3.2568                 1.6628
 IR Inten    --     17.9793                23.2940                 5.7344

                     70                     71                     72
                      A                      A                      A
 Frequencies --   1448.1695              1480.9604              1482.9322
 Red. masses --      1.3545                 1.7640                 2.7269
 Frc consts  --      1.6737                 2.2795                 3.5331
 IR Inten    --      2.9688                 7.0593                38.6445

                     73                     74                     75
                      A                      A                      A
 Frequencies --   1507.4771              1511.1701              1515.3333
 Red. masses --      1.0854                 1.1238                 1.1363
 Frc consts  --      1.4532                 1.5120                 1.5373
 IR Inten    --      2.7815                 5.6551                 5.7010

                     76                     77                     78
                      A                      A                      A
 Frequencies --   1517.6227              1523.5191              1529.4363
 Red. masses --      1.0758                 1.1410                 1.4063
 Frc consts  --      1.4598                 1.5604                 1.9382
 IR Inten    --      3.5191                 3.6334                16.6518

                     79                     80                     81
                      A                      A                      A
 Frequencies --   1531.6701              1542.9258              1560.3444
 Red. masses --      1.1010                 1.0856                 2.6742
 Frc consts  --      1.5219                 1.5226                 3.8361
 IR Inten    --      8.4996                18.2030               183.1497

                     82                     83                     84
                      A                      A                      A
 Frequencies --   1618.3140              1641.2489              1650.5509
 Red. masses --      5.3272                 7.6426                 6.2251
 Frc consts  --      8.2200                12.1294                 9.9920
 IR Inten    --     45.3996                 8.3483                 7.1133

                     85                     86                     87
                      A                      A                      A
 Frequencies --   1674.7700              3032.5337              3052.0417
 Red. masses --      6.0876                 1.0348                 1.0384
 Frc consts  --     10.0603                 5.6069                 5.6989
 IR Inten    --     10.2890                35.0809                28.5024

                     88                     89                     90
                      A                      A                      A
 Frequencies --   3061.5675              3070.6807              3096.0427
 Red. masses --      1.0609                 1.0429                 1.1030
 Frc consts  --      5.8591                 5.7937                 6.2294
 IR Inten    --     22.6427                26.7588                36.4777

                     91                     92                     93
                      A                      A                      A
 Frequencies --   3107.9576              3129.2297              3135.0411
 Red. masses --      1.0974                 1.0991                 1.1032
 Frc consts  --      6.2455                 6.3412                 6.3881
 IR Inten    --     16.9340                12.5139                11.1271

                     94                     95                     96
                      A                      A                      A
 Frequencies --   3150.8807              3156.4241              3157.4614
 Red. masses --      1.1016                 1.1025                 1.0917
 Frc consts  --      6.4438                 6.4716                 6.4124
 IR Inten    --     12.9103                29.3707                45.4806

                     97                     98                     99
                      A                      A                      A
 Frequencies --   3158.4462              3165.8904              3203.9298
 Red. masses --      1.0979                 1.0895                 1.0882
 Frc consts  --      6.4531                 6.4340                 6.5815
 IR Inten    --      7.0042                17.8521                 6.0829

                    100                    101                    102
                      A                      A                      A
 Frequencies --   3220.4521              3224.4543              3753.9178
 Red. masses --      1.0944                 1.0929                 1.0659
 Frc consts  --      6.6877                 6.6951                 8.8502
 IR Inten    --      8.3502                 2.1359                37.0734

 - Thermochemistry -
 -------------------
 Temperature   298.150 Kelvin.  Pressure   1.00000 Atm.
 Atom     1 has atomic number  6 and mass  12.00000

 Molecular mass:   259.12084 amu.
 Principal axes and moments of inertia in atomic units:
                           1         2         3
     Eigenvalues --  3142.725495992.094177646.09682
           X            0.99973  -0.01723   0.01581
           Y            0.01760   0.99957  -0.02346
           Z           -0.01540   0.02373   0.99960
 This molecule is an asymmetric top.
 Rotational symmetry number  1.
 Warning -- assumption of classical behavior for rotation
           may cause significant error
 Rotational temperatures (Kelvin)      0.02756     0.01445     0.01133
 Rotational constants (GHZ):           0.57426     0.30119     0.23603
 Zero-point vibrational energy     776785.5 (Joules/Mol)
                                  185.65620 (Kcal/Mol)
 Warning -- explicit consideration of  29 degrees of freedom as
           vibrations may cause significant error
 Vibrational temperatures:     31.61    62.09    83.81   108.18   126.28
          (Kelvin)            145.82   164.06   177.62   223.71   232.38
                              270.80   306.40   349.68   403.48   485.11
                              490.06   501.42   512.88   536.64   553.63
                              623.17   629.33   660.53   680.45   712.23
                              734.42   775.51   799.65   846.77   945.17
                              949.51  1020.57  1054.95  1076.29  1112.68
                             1166.99  1176.84  1227.54  1243.75  1281.47
                             1345.67  1353.04  1370.83  1406.95  1445.63
                             1477.14  1487.14  1504.93  1535.79  1544.50
                             1551.74  1613.95  1628.34  1707.62  1713.50
                             1739.49  1752.68  1784.53  1800.61  1846.83
                             1880.63  1884.62  1905.77  1907.17  1913.76
                             1980.75  2032.40  2070.67  2074.35  2083.59
                             2130.77  2133.61  2168.92  2174.24  2180.23
                             2183.52  2192.00  2200.52  2203.73  2219.93
                             2244.99  2328.39  2361.39  2374.77  2409.62
                             4363.14  4391.21  4404.91  4418.02  4454.51
                             4471.66  4502.26  4510.62  4533.41  4541.39
                             4542.88  4544.30  4555.01  4609.74  4633.51
                             4639.27  5401.05

 Zero-point correction=                           0.295862 (Hartree/Particle)
 Thermal correction to Energy=                    0.314095
 Thermal correction to Enthalpy=                  0.315039
 Thermal correction to Gibbs Free Energy=         0.248848
 Sum of electronic and zero-point Energies=           -862.004448
 Sum of electronic and thermal Energies=              -861.986215
 Sum of electronic and thermal Enthalpies=            -861.985271
 Sum of electronic and thermal Free Energies=         -862.051463

                     E (Thermal)             CV                S
                      KCal/Mol        Cal/Mol-Kelvin    Cal/Mol-Kelvin
 Total                  197.098             68.966            139.312
 Electronic               0.000              0.000              0.000
 Translational            0.889              2.981             42.556
 Rotational               0.889              2.981             33.332
 Vibrational            195.320             63.005             63.424
 Vibration     1          0.593              1.985              6.448
 Vibration     2          0.595              1.980              5.109
 Vibration     3          0.596              1.974              4.515
 Vibration     4          0.599              1.966              4.013
 Vibration     5          0.601              1.958              3.709
 Vibration     6          0.604              1.948              3.428
 Vibration     7          0.607              1.938              3.199
 Vibration     8          0.610              1.929              3.046
 Vibration     9          0.620              1.897              2.604
 Vibration    10          0.622              1.890              2.532
 Vibration    11          0.633              1.856              2.245
 Vibration    12          0.644              1.821              2.018
 Vibration    13          0.659              1.774              1.781
 Vibration    14          0.680              1.710              1.531
 Vibration    15          0.718              1.601              1.226
 Vibration    16          0.720              1.594              1.209
 Vibration    17          0.726              1.578              1.173
 Vibration    18          0.732              1.562              1.137
 Vibration    19          0.744              1.528              1.068
 Vibration    20          0.754              1.503              1.020
 Vibration    21          0.794              1.398              0.849
 Vibration    22          0.798              1.389              0.835
 Vibration    23          0.817              1.341              0.769
 Vibration    24          0.830              1.310              0.729
 Vibration    25          0.851              1.261              0.671
 Vibration    26          0.866              1.227              0.633
 Vibration    27          0.894              1.164              0.567
 Vibration    28          0.911              1.127              0.532
 Vibration    29          0.946              1.056              0.470

                           ! Non-Optimized Parameters !
 Normal termination of Gaussian 16 at Sun Dec 13 16:42:44 2020.

 ----------------------------------------------------------------------
 # B3LYP/6-311++G(d,p) empiricaldispersion=gd3bj scf=xqc pop=npa geom=c
 heck
 ----------------------------------------------------------------------

 --------------------------------------
 CID_43326279_JID_9187_Energie_neutraal
 --------------------------------------
 Structure from the checkpoint file:  "JID_9187.chk"
 Charge =  0 Multiplicity = 1

 SCF Done:  E(RB3LYP) =  -862.539493437     A.U. after   15 cycles
 Normal termination of Gaussian 16 at Sun Dec 13 16:51:46 2020.

 ----------------------------------------------------------------------
 # B3LYP/6-311++G(d,p) empiricaldispersion=gd3bj scf=xqc pop=npa geom=c
 heck
 ----------------------------------------------------------------------

 ------------------------------------
 CID_43326279_JID_9187_Energie_kation
 ------------------------------------
 Structure from the checkpoint file:  "JID_9187.chk"
 Charge =  1 Multiplicity = 2

 SCF Done:  E(UB3LYP) =  -862.245301905     A.U. after   31 cycles
 Normal termination of Gaussian 16 at Sun Dec 13 17:18:48 2020.
 Gaussian 16:  ES64L-G16RevA.03 25-Dec-2016

 ----------------------------------------------------------------------
 # B3LYP/6-311++G(d,p) empiricaldispersion=gd3bj scf=xqc pop=npa geom=c
 heck
 ----------------------------------------------------------------------

 -----------------------------------
 CID_43326279_JID_9187_Energie_anion
 -----------------------------------
 Structure from the checkpoint file:  "JID_9187.chk"
 Charge = -1 Multiplicity = 2

                         Standard orientation:
 ---------------------------------------------------------------------
 Center     Atomic      Atomic             Coordinates (Angstroms)
 Number     Number       Type             X           Y           Z
 ---------------------------------------------------------------------
      1          6           0       -4.042203    1.168424   -0.918765
      2          6           0       -2.977806    0.212503   -0.453948
      3          6           0       -2.882686   -1.092987   -0.942153
      4          7           0       -1.945572   -1.966447   -0.573487
      5          6           0       -1.049841   -1.589677    0.352481
      6          6           0       -1.058675   -0.319073    0.958991
      7          6           0       -2.031649    0.584166    0.506464
      8          8           0       -2.091465    1.859444    1.029763
      9          6           0       -1.174203    2.769054    0.419308
     10          6           0       -0.093901    0.102505    2.039333
     11          6           0        0.043151   -2.602896    0.605423
     12          8           0        1.087207   -2.519961   -0.389810
     13          6           0        1.762706   -1.317393   -0.409649
     14          6           0        2.872674   -1.120837    0.416920
     15          6           0        3.556686    0.091370    0.402805
     16          6           0        3.128739    1.120512   -0.442934
     17          6           0        2.024463    0.922969   -1.278625
     18          6           0        1.345456   -0.295356   -1.262817
     19          8           0        3.833540    2.294655   -0.413819
     20          1           0       -4.595604    1.584539   -0.070755
     21          1           0       -3.613531    2.017842   -1.464336
     22          1           0       -4.749640    0.665631   -1.584909
     23          1           0       -3.602785   -1.443444   -1.681263
     24          1           0       -0.138557    2.423617    0.520374
     25          1           0       -1.401252    2.897913   -0.647196
     26          1           0       -1.296486    3.723360    0.935537
     27          1           0        0.862042    0.436105    1.621467
     28          1           0       -0.520378    0.925968    2.616636
     29          1           0        0.124567   -0.718658    2.726984
     30          1           0        0.483982   -2.497669    1.603336
     31          1           0       -0.365752   -3.607101    0.491658
     32          1           0        3.193005   -1.928129    1.068443
     33          1           0        4.423081    0.257435    1.034508
     34          1           0        1.698176    1.718595   -1.946165
     35          1           0        0.484498   -0.461971   -1.900854
     36          1           0        3.461903    2.898269   -1.075136
 ---------------------------------------------------------------------

 SCF Done:  E(UB3LYP) =  -862.535883999     A.U. after   33 cycles
 SCF Done:  E(UB3LYP) =  -862.535883999     a.u. after    1 cycles

 The electronic state is 2-A.
 Alpha  occ. eigenvalues --  -19.04949 -19.03599 -19.03388 -14.19024 -10.13693
 Alpha  occ. eigenvalues --  -10.12159 -10.12152 -10.11998 -10.10868 -10.09615
 Alpha  occ. eigenvalues --  -10.09434 -10.08370 -10.08077 -10.07732 -10.07671
 Alpha  occ. eigenvalues --  -10.07570 -10.07511 -10.07311 -10.06821  -0.95979
 Alpha  occ. eigenvalues --   -0.95321  -0.94952  -0.83268  -0.75416  -0.70587
 Alpha  occ. eigenvalues --   -0.69710  -0.65718  -0.64977  -0.61753  -0.61084
 Alpha  occ. eigenvalues --   -0.57895  -0.56652  -0.53073  -0.50599  -0.49647
 Alpha  occ. eigenvalues --   -0.47889  -0.44916  -0.42729  -0.42069  -0.39715
 Alpha  occ. eigenvalues --   -0.38842  -0.36836  -0.35984  -0.35273  -0.34651
 Alpha  occ. eigenvalues --   -0.33588  -0.33336  -0.33078  -0.32298  -0.31901
 Alpha  occ. eigenvalues --   -0.31719  -0.31329  -0.30619  -0.30057  -0.29015
 Alpha  occ. eigenvalues --   -0.28833  -0.27259  -0.26342  -0.25540  -0.24935
 Alpha  occ. eigenvalues --   -0.24737  -0.22392  -0.18274  -0.17550  -0.16644
 Alpha  occ. eigenvalues --   -0.15733  -0.14919  -0.14437  -0.12200   0.04162
 Alpha virt. eigenvalues --    0.06600   0.07202   0.07467   0.07731   0.08354
 Alpha virt. eigenvalues --    0.08546   0.09082   0.09375   0.09689   0.10112
 Alpha virt. eigenvalues --    0.10397   0.11276   0.11523   0.12196   0.12961

  Beta  occ. eigenvalues --  -19.04895 -19.03607 -19.03362 -14.18841 -10.13697
  Beta  occ. eigenvalues --  -10.12158 -10.12154 -10.11847 -10.10779 -10.09540
  Beta  occ. eigenvalues --  -10.09447 -10.08407 -10.08070 -10.07713 -10.07608
  Beta  occ. eigenvalues --  -10.07549 -10.07476 -10.07306 -10.06816  -0.95877
  Beta  occ. eigenvalues --   -0.95257  -0.94892  -0.83018  -0.75378  -0.70401
  Beta  occ. eigenvalues --   -0.69616  -0.65670  -0.64927  -0.61648  -0.60998
  Beta  occ. eigenvalues --   -0.57796  -0.56597  -0.53003  -0.50505  -0.49588
  Beta  occ. eigenvalues --   -0.47755  -0.44839  -0.42656  -0.41997  -0.39648
  Beta  occ. eigenvalues --   -0.38805  -0.36705  -0.35862  -0.35218  -0.34600
  Beta  occ. eigenvalues --   -0.33510  -0.33270  -0.33032  -0.32266  -0.31793
  Beta  occ. eigenvalues --   -0.31685  -0.31290  -0.30580  -0.30020  -0.28969
  Beta  occ. eigenvalues --   -0.28788  -0.26886  -0.26295  -0.25466  -0.24855
  Beta  occ. eigenvalues --   -0.24599  -0.22331  -0.18235  -0.17450  -0.16519
  Beta  occ. eigenvalues --   -0.15172  -0.14711  -0.14105  -0.12136
  Beta virt. eigenvalues --    0.06927   0.07387   0.07571   0.07916   0.08266
  Beta virt. eigenvalues --    0.08580   0.08873   0.09098   0.09615   0.09943
  Beta virt. eigenvalues --    0.10282   0.10633   0.11247   0.11649   0.12315

 Mulliken charges and spin densities:
               1          2
     1  C    0.020576  -0.425571
     2  C    0.718944  -0.007850
     3  C   -0.689854  -0.033188
     4  N    0.048226   0.090689
     5  C    0.222704  -0.151009
     6  C    0.694332  -0.121715
     7  C   -1.247480   0.736289
     8  O   -0.168672   0.031260
     9  C    0.643724  -0.896955
    10  C   -0.764230   0.065112
    11  C   -0.530013  -0.059927
    12  O   -0.071927  -0.005694
    13  C   -0.849863   0.143994
    14  C    0.031705   0.134714
    15  C    0.839241  -0.806617
    16  C    0.888905  -1.591312
    17  C   -0.456154   0.617222
    18  C   -0.156272   0.346755
    19  O   -0.263943   0.054620
    20  H    0.161945   0.012932
    21  H   -0.043193   0.212935
    22  H    0.052695   0.077316
    23  H    0.106925   0.033874
    24  H    0.009769   0.125886
    25  H   -0.173365   0.306423
    26  H   -0.311675   0.470424
    27  H    0.187957   0.074676
    28  H    0.195163   0.014262
    29  H    0.072428   0.041310
    30  H    0.113091  -0.001027
    31  H    0.193811  -0.000410
    32  H    0.160533  -0.000070
    33  H    0.172527   0.004734
    34  H   -0.758680   0.948321
    35  H    0.312153  -0.090588
    36  H   -0.362035   0.648185
 Sum of Mulliken charges =  -1.00000   1.00000

 Dipole moment (field-independent basis, Debye):
    X=             -1.9085    Y=             -6.6197    Z=              3.9274  Tot=              7.9302
 Quadrupole moment (field-independent basis, Debye-Ang):
   XX=           -161.6089   YY=           -177.2882   ZZ=           -135.6097
   XY=            -12.9335   XZ=              8.8510   YZ=              2.7393

 Summary of Natural Population Analysis:

                                       Natural Population
                Natural  -----------------------------------------------
    Atom  No    Charge         Core      Valence    Rydberg      Total
 -----------------------------------------------------------------------
      C    1   -0.29394      0.99964     2.28828    0.00601     3.29394
      C    2   -0.03948      0.99945     2.03129    0.00874     3.03948
      C    3    0.02241      0.99955     1.96466    0.01338     2.97759
      N    4   -0.21503      0.99968     2.70402    0.01132     3.71503
      C    5    0.09069      0.99949     1.89441    0.01541     2.90931
      C    6   -0.04484      0.99942     2.03716    0.00826     3.04484
      C    7    0.19297      0.99927     1.79412    0.01364     2.80703
      O    8   -0.29839      0.99987     3.28904    0.00948     4.29839
      C    9   -0.09324      0.99959     2.08444    0.00921     3.09324
      C   10   -0.30146      0.99963     2.29537    0.00645     3.30146
      C   11   -0.01644      0.99952     2.00621    0.01072     3.01644
      O   12   -0.28948      0.99987     3.28036    0.00925     4.28948
      C   13    0.13255      0.99936     1.85291    0.01519     2.86745
      C   14   -0.11503      0.99951     2.10646    0.00906     3.11503
      C   15   -0.12519      0.99952     2.11620    0.00947     3.12519
      C   16    0.15161      0.99938     1.83481    0.01420     2.84839
      C   17   -0.13265      0.99952     2.12190    0.01123     3.13265
      C   18   -0.10574      0.99951     2.09608    0.01015     3.10574
      O   19   -0.34228      0.99988     3.33537    0.00704     4.34228
      H   20    0.10629      0.00000     0.39277    0.00094     0.39371
      H   21    0.10823      0.00000     0.39066    0.00111     0.39177
      H   22    0.09777      0.00000     0.40147    0.00075     0.40223
      H   23    0.08388      0.00000     0.41480    0.00132     0.41612
      H   24    0.08613      0.00000     0.41204    0.00183     0.41387
      H   25    0.08432      0.00000     0.41346    0.00223     0.41568
      H   26    0.09045      0.00000     0.40813    0.00143     0.40955
      H   27    0.11259      0.00000     0.38600    0.00141     0.38741
      H   28    0.10922      0.00000     0.38984    0.00094     0.39078
      H   29    0.09946      0.00000     0.39974    0.00079     0.40054
      H   30    0.08016      0.00000     0.41885    0.00099     0.41984
      H   31    0.09835      0.00000     0.40063    0.00103     0.40165
      H   32    0.10177      0.00000     0.39736    0.00087     0.39823
      H   33    0.10327      0.00000     0.39558    0.00115     0.39673
      H   34    0.10803      0.00000     0.38970    0.00226     0.39197
      H   35    0.11108      0.00000     0.38729    0.00163     0.38892
      H   36    0.24198      0.00000     0.24504    0.01298     0.25802
 =======================================================================
   * Total *   -0.00000     18.99164    49.77647    0.23189    69.00000

 Normal termination of Gaussian 16 at Sun Dec 13 17:48:05 2020.
