 Gaussian 16, Revision A.03,

 -----------------------------------------------------------
 # opt freq B3LYP/6-31G(d) empiricaldispersion=gd3bj scf=xqc
 -----------------------------------------------------------

 -------------------------------
 CID_138601271_JID_1436_neutraal
 -------------------------------
 Symbolic Z-matrix:
 Charge =  0 Multiplicity = 1

 SCF Done:  E(RB3LYP) =  -842.062082419     A.U. after   13 cycles
 SCF Done:  E(RB3LYP) =  -842.068327380     A.U. after   11 cycles
 SCF Done:  E(RB3LYP) =  -842.070140882     A.U. after   11 cycles
 SCF Done:  E(RB3LYP) =  -842.070359182     A.U. after   11 cycles
 SCF Done:  E(RB3LYP) =  -842.070387747     A.U. after   10 cycles
 SCF Done:  E(RB3LYP) =  -842.070390592     A.U. after    8 cycles
 SCF Done:  E(RB3LYP) =  -842.070391136     A.U. after    7 cycles
 SCF Done:  E(RB3LYP) =  -842.070391295     A.U. after    7 cycles
 SCF Done:  E(RB3LYP) =  -842.070391316     A.U. after    6 cycles
 Optimization completed.
    -- Stationary point found.
 Normal termination of Gaussian 16 at Tue Dec  8 19:59:28 2020.

 --------------------------------------------------------------------
 #N Geom=AllCheck Guess=TCheck SCRF=Check GenChk RB3LYP/6-31G(d) Freq
 --------------------------------------------------------------------

 Structure from the checkpoint file:  "JID_1436.chk"
 -------------------------------
 CID_138601271_JID_1436_neutraal
 -------------------------------
 Charge =  0 Multiplicity = 1

 SCF Done:  E(RB3LYP) =  -842.070391316     A.U. after    1 cycles

  Exact polarizability: 122.274  -5.853 103.048  -0.001  -0.000  91.967
 Approx polarizability: 164.853  -9.654 151.829  -0.001  -0.001 135.487

                      1                      2                      3
                      A                      A                      A
 Frequencies --     59.4988                86.7986               155.3729
 Red. masses --      3.3573                 5.1953                 1.0536
 Frc consts  --      0.0070                 0.0231                 0.0150
 IR Inten    --      1.3990                 0.1854                 0.0021

                      4                      5                      6
                      A                      A                      A
 Frequencies --    172.3316               186.8406               241.8859
 Red. masses --      3.2847                 1.9202                 3.6652
 Frc consts  --      0.0575                 0.0395                 0.1263
 IR Inten    --      3.9038                 0.3312                 1.3143

                      7                      8                      9
                      A                      A                      A
 Frequencies --    244.9961               298.7260               340.5774
 Red. masses --      3.1988                 1.3855                 3.2691
 Frc consts  --      0.1131                 0.0728                 0.2234
 IR Inten    --      3.6389                35.3696                 1.4487

                     10                     11                     12
                      A                      A                      A
 Frequencies --    361.1950               387.4933               428.4836
 Red. masses --      1.9725                 2.7131                 5.1409
 Frc consts  --      0.1516                 0.2400                 0.5561
 IR Inten    --     60.0884                 7.3733                 0.1175

                     13                     14                     15
                      A                      A                      A
 Frequencies --    467.0586               495.4020               498.8538
 Red. masses --      2.9362                 2.7116                 3.8339
 Frc consts  --      0.3774                 0.3921                 0.5621
 IR Inten    --      1.4537                 3.4699                 1.2697

                     16                     17                     18
                      A                      A                      A
 Frequencies --    641.9050               706.6790               744.0543
 Red. masses --      3.1786                 5.3750                 4.6999
 Frc consts  --      0.7717                 1.5815                 1.5330
 IR Inten    --     12.4321                 1.7411                 1.8857

                     19                     20                     21
                      A                      A                      A
 Frequencies --    782.7551               811.5861               851.5842
 Red. masses --      3.9740                 1.5231                 2.4258
 Frc consts  --      1.4346                 0.5911                 1.0365
 IR Inten    --      1.4507                 2.5880                 0.8231

                     22                     23                     24
                      A                      A                      A
 Frequencies --    877.8469               892.4050               919.9736
 Red. masses --      2.4596                 1.5527                 3.4595
 Frc consts  --      1.1168                 0.7286                 1.7251
 IR Inten    --      4.0239                 0.7257                 2.1026

                     25                     26                     27
                      A                      A                      A
 Frequencies --    947.9803               986.0110               993.2970
 Red. masses --      2.4120                 1.1932                 1.5172
 Frc consts  --      1.2771                 0.6835                 0.8820
 IR Inten    --     12.9319                 2.4518                 2.5595

                     28                     29                     30
                      A                      A                      A
 Frequencies --   1003.7772              1019.5898              1031.8283
 Red. masses --      2.0383                 1.7649                 2.5663
 Frc consts  --      1.2100                 1.0810                 1.6098
 IR Inten    --      0.5210                 0.0026                41.3185

                     31                     32                     33
                      A                      A                      A
 Frequencies --   1040.0706              1087.3911              1113.0571
 Red. masses --      2.3554                 2.0168                 1.9292
 Frc consts  --      1.5012                 1.4051                 1.4082
 IR Inten    --     14.8094                87.8355                 9.3424

                     34                     35                     36
                      A                      A                      A
 Frequencies --   1115.2620              1148.7998              1171.3569
 Red. masses --      3.3632                 2.7056                 1.0667
 Frc consts  --      2.4647                 2.1038                 0.8624
 IR Inten    --     46.9402                 6.6250                13.3612

                     37                     38                     39
                      A                      A                      A
 Frequencies --   1197.8235              1224.8336              1264.4267
 Red. masses --      1.5228                 1.1916                 1.1684
 Frc consts  --      1.2873                 1.0533                 1.1006
 IR Inten    --     17.6518                 5.9471                 0.6885

                     40                     41                     42
                      A                      A                      A
 Frequencies --   1278.2191              1304.1981              1314.1562
 Red. masses --      1.5747                 1.4543                 1.4697
 Frc consts  --      1.5158                 1.4575                 1.4955
 IR Inten    --      4.4321                 0.0955                35.4229

                     43                     44                     45
                      A                      A                      A
 Frequencies --   1316.3862              1348.7767              1363.2048
 Red. masses --      1.5831                 1.3467                 1.5104
 Frc consts  --      1.6163                 1.4435                 1.6537
 IR Inten    --      2.4269                 0.0104                 1.9995

                     46                     47                     48
                      A                      A                      A
 Frequencies --   1363.8727              1377.9779              1385.7690
 Red. masses --      1.3287                 1.1755                 1.4457
 Frc consts  --      1.4562                 1.3151                 1.6357
 IR Inten    --      0.0683                 8.1715                12.5751

                     49                     50                     51
                      A                      A                      A
 Frequencies --   1401.9000              1409.0715              1459.0998
 Red. masses --      1.3497                 1.4670                 1.2344
 Frc consts  --      1.5628                 1.7161                 1.5484
 IR Inten    --     11.6736                 6.3336                49.8795

                     52                     53                     54
                      A                      A                      A
 Frequencies --   1489.2251              1508.5686              1510.3269
 Red. masses --      1.0540                 1.0873                 1.0534
 Frc consts  --      1.3772                 1.4580                 1.4158
 IR Inten    --      6.5854                 1.6157                11.9632

                     55                     56                     57
                      A                      A                      A
 Frequencies --   1518.9569              1524.6448              1539.8029
 Red. masses --      1.0823                 1.0991                 1.0992
 Frc consts  --      1.4712                 1.5054                 1.5355
 IR Inten    --      2.1938                 5.8529                 3.3192

                     58                     59                     60
                      A                      A                      A
 Frequencies --   3029.8637              3033.0118              3060.9355
 Red. masses --      1.0647                 1.0659                 1.0294
 Frc consts  --      5.7587                 5.7774                 5.6828
 IR Inten    --     12.4733                24.7039                28.9005

                     61                     62                     63
                      A                      A                      A
 Frequencies --   3067.6518              3074.8026              3083.4664
 Red. masses --      1.0851                 1.0610                 1.0640
 Frc consts  --      6.0163                 5.9103                 5.9601
 IR Inten    --      8.6904                10.2636                26.3625

                     64                     65                     66
                      A                      A                      A
 Frequencies --   3084.8199              3092.1452              3098.1752
 Red. masses --      1.0979                 1.0967                 1.0880
 Frc consts  --      6.1556                 6.1779                 6.1529
 IR Inten    --     21.2894                64.6036                74.0646

                     67                     68                     69
                      A                      A                      A
 Frequencies --   3103.3136              3113.9160              3133.6731
 Red. masses --      1.0879                 1.1057                 1.1059
 Frc consts  --      6.1730                 6.3168                 6.3987
 IR Inten    --     15.5315                 5.0146                51.8898

                     70                     71                     72
                      A                      A                      A
 Frequencies --   3147.8069              3157.6099              3721.3845
 Red. masses --      1.1039                 1.1085                 1.0657
 Frc consts  --      6.4446                 6.5121                 8.6958
 IR Inten    --     10.8017                10.9070                 6.5400

 - Thermochemistry -
 -------------------
 Temperature   298.150 Kelvin.  Pressure   1.00000 Atm.
 Atom     1 has atomic number  6 and mass  12.00000

 Molecular mass:   173.08744 amu.
 Principal axes and moments of inertia in atomic units:
                           1         2         3
     Eigenvalues --  1246.242772352.910392779.12938
           X            1.00000  -0.00280  -0.00000
           Y            0.00280   1.00000   0.00000
           Z            0.00000  -0.00000   1.00000
 This molecule is an asymmetric top.
 Rotational symmetry number  1.
 Warning -- assumption of classical behavior for rotation
           may cause significant error
 Rotational temperatures (Kelvin)      0.06950     0.03681     0.03117
 Rotational constants (GHZ):           1.44815     0.76703     0.64939
 Zero-point vibrational energy     600624.3 (Joules/Mol)
                                  143.55265 (Kcal/Mol)
 Warning -- explicit consideration of  15 degrees of freedom as
           vibrations may cause significant error
 Vibrational temperatures:     85.61   124.88   223.55   247.95   268.82
          (Kelvin)            348.02   352.49   429.80   490.01   519.68
                              557.52   616.49   671.99   712.77   717.74
                              923.56  1016.75  1070.53  1126.21  1167.69
                             1225.24  1263.03  1283.97  1323.64  1363.93
                             1418.65  1429.13  1444.21  1466.96  1484.57
                             1496.43  1564.51  1601.44  1604.61  1652.87
                             1685.32  1723.40  1762.26  1819.23  1839.07
                             1876.45  1890.78  1893.99  1940.59  1961.35
                             1962.31  1982.60  1993.81  2017.02  2027.34
                             2099.32  2142.66  2170.49  2173.02  2185.44
                             2193.62  2215.43  4359.30  4363.83  4404.00
                             4413.67  4423.96  4436.42  4438.37  4448.91
                             4457.58  4464.98  4480.23  4508.66  4528.99
                             4543.10  5354.24

 Zero-point correction=                           0.228766 (Hartree/Particle)
 Thermal correction to Energy=                    0.239716
 Thermal correction to Enthalpy=                  0.240661
 Thermal correction to Gibbs Free Energy=         0.192250
 Sum of electronic and zero-point Energies=           -841.841626
 Sum of electronic and thermal Energies=              -841.830675
 Sum of electronic and thermal Enthalpies=            -841.829731
 Sum of electronic and thermal Free Energies=         -841.878141

                     E (Thermal)             CV                S
                      KCal/Mol        Cal/Mol-Kelvin    Cal/Mol-Kelvin
 Total                  150.424             42.917            101.888
 Electronic               0.000              0.000              0.000
 Translational            0.889              2.981             41.353
 Rotational               0.889              2.981             30.478
 Vibrational            148.647             36.955             30.057
 Vibration     1          0.597              1.974              4.474
 Vibration     2          0.601              1.958              3.731
 Vibration     3          0.620              1.897              2.605
 Vibration     4          0.626              1.877              2.410
 Vibration     5          0.632              1.858              2.259
 Vibration     6          0.658              1.776              1.789
 Vibration     7          0.660              1.771              1.766
 Vibration     8          0.692              1.676              1.424
 Vibration     9          0.720              1.594              1.209
 Vibration    10          0.735              1.552              1.117
 Vibration    11          0.756              1.497              1.010
 Vibration    12          0.790              1.408              0.864
 Vibration    13          0.824              1.323              0.746
 Vibration    14          0.851              1.260              0.670
 Vibration    15          0.854              1.253              0.661

 Optimization completed.
    -- Stationary point found.
 Normal termination of Gaussian 16 at Tue Dec  8 20:05:50 2020.

 ----------------------------------------------------------------------
 # B3LYP/6-311++G(d,p) empiricaldispersion=gd3bj scf=xqc pop=npa geom=c
 heck
 ----------------------------------------------------------------------

 ---------------------------------------
 CID_138601271_JID_1436_Energie_neutraal
 ---------------------------------------
 Structure from the checkpoint file:  "JID_1436.chk"
 Charge =  0 Multiplicity = 1

 SCF Done:  E(RB3LYP) =  -842.229643192     A.U. after   14 cycles
 Normal termination of Gaussian 16 at Tue Dec  8 20:08:02 2020.

 ----------------------------------------------------------------------
 # B3LYP/6-311++G(d,p) empiricaldispersion=gd3bj scf=xqc pop=npa geom=c
 heck
 ----------------------------------------------------------------------

 -------------------------------------
 CID_138601271_JID_1436_Energie_kation
 -------------------------------------
 Structure from the checkpoint file:  "JID_1436.chk"
 Charge =  1 Multiplicity = 2

 SCF Done:  E(UB3LYP) =  -841.918445171     A.U. after   24 cycles
 Normal termination of Gaussian 16 at Tue Dec  8 20:13:20 2020.
 Gaussian 16:  ES64L-G16RevA.03 25-Dec-2016

 ----------------------------------------------------------------------
 # B3LYP/6-311++G(d,p) empiricaldispersion=gd3bj scf=xqc pop=npa geom=c
 heck
 ----------------------------------------------------------------------

 ------------------------------------
 CID_138601271_JID_1436_Energie_anion
 ------------------------------------
 Structure from the checkpoint file:  "JID_1436.chk"
 Charge = -1 Multiplicity = 2

                         Standard orientation:
 ---------------------------------------------------------------------
 Center     Atomic      Atomic             Coordinates (Angstroms)
 Number     Number       Type             X           Y           Z
 ---------------------------------------------------------------------
      1          6           0        3.469690   -0.275251   -0.000112
      2         16           0        1.814831   -1.041665    0.000099
      3          7           0        0.860517    0.400333    0.000041
      4          6           0       -0.026277    0.638416    1.160811
      5          6           0       -0.616917    2.014205    0.779862
      6          6           0       -0.616824    2.014235   -0.779835
      7          6           0       -0.026238    0.638437   -1.160790
      8          6           0       -1.108249   -0.452811   -1.269236
      9          6           0       -1.972955   -0.515329   -0.000033
     10          6           0       -1.108317   -0.452840    1.269208
     11          8           0       -2.843677   -1.643670   -0.000079
     12          1           0        3.609763    0.336487    0.894285
     13          1           0        3.609637    0.336464   -0.894547
     14          1           0        4.199896   -1.091280   -0.000152
     15          1           0        0.573600    0.674231    2.074048
     16          1           0       -1.616428    2.157153    1.201760
     17          1           0        0.022716    2.813775    1.162210
     18          1           0        0.022946    2.813749   -1.162070
     19          1           0       -1.616267    2.157304   -1.201858
     20          1           0        0.573702    0.674269   -2.073984
     21          1           0       -0.608965   -1.421307   -1.416030
     22          1           0       -1.749182   -0.287629   -2.143383
     23          1           0       -2.657212    0.340019   -0.000048
     24          1           0       -0.609052   -1.421343    1.416015
     25          1           0       -1.749268   -0.287639    2.143337
     26          1           0       -2.280861   -2.434961   -0.000077
 ---------------------------------------------------------------------

 SCF Done:  E(UB3LYP) =  -842.213485341     A.U. after   26 cycles

 The electronic state is 2-A.
 Alpha  occ. eigenvalues --  -88.75240 -19.03052 -14.21897 -10.12377 -10.09960
 Alpha  occ. eigenvalues --  -10.09958 -10.07953 -10.06640 -10.06639 -10.06487
 Alpha  occ. eigenvalues --  -10.06468  -7.83644  -5.80133  -5.79679  -5.78944
 Alpha  occ. eigenvalues --   -0.93217  -0.84215  -0.70515  -0.66462  -0.66228
 Alpha  occ. eigenvalues --   -0.63171  -0.55122  -0.53953  -0.51651  -0.47370
 Alpha  occ. eigenvalues --   -0.44314  -0.41308  -0.38318  -0.36222  -0.35286
 Alpha  occ. eigenvalues --   -0.33767  -0.32251  -0.32145  -0.31302  -0.31110
 Alpha  occ. eigenvalues --   -0.29825  -0.27071  -0.26381  -0.25231  -0.25019
 Alpha  occ. eigenvalues --   -0.24444  -0.24281  -0.21625  -0.20916  -0.17752
 Alpha  occ. eigenvalues --   -0.12423  -0.12347   0.04728
 Alpha virt. eigenvalues --    0.07003   0.07481   0.07554   0.08944   0.09609
 Alpha virt. eigenvalues --    0.10059   0.10574   0.10698   0.12059   0.12269
 Alpha virt. eigenvalues --    0.12915   0.13024   0.13321   0.13388   0.13899

  Beta  occ. eigenvalues --  -88.75234 -19.03044 -14.21891 -10.12371 -10.09948
  Beta  occ. eigenvalues --  -10.09946 -10.07899 -10.06630 -10.06630 -10.06465
  Beta  occ. eigenvalues --  -10.06446  -7.83639  -5.80130  -5.79663  -5.78941
  Beta  occ. eigenvalues --   -0.93202  -0.84190  -0.70484  -0.66432  -0.66200
  Beta  occ. eigenvalues --   -0.63115  -0.55084  -0.53891  -0.51605  -0.47318
  Beta  occ. eigenvalues --   -0.44279  -0.41253  -0.38292  -0.36184  -0.35252
  Beta  occ. eigenvalues --   -0.33743  -0.32231  -0.32101  -0.31252  -0.31069
  Beta  occ. eigenvalues --   -0.29785  -0.27036  -0.26334  -0.25207  -0.24991
  Beta  occ. eigenvalues --   -0.24399  -0.24248  -0.21592  -0.20880  -0.17735
  Beta  occ. eigenvalues --   -0.12401  -0.12317
  Beta virt. eigenvalues --    0.06975   0.07711   0.07857   0.08454   0.09594
  Beta virt. eigenvalues --    0.10199   0.10857   0.10904   0.11069   0.12377
  Beta virt. eigenvalues --    0.12542   0.13225   0.13402   0.13739   0.13898

 Mulliken charges and spin densities:
               1          2
     1  C    1.020695  -1.518116
     2  S   -0.308224   0.414503
     3  N    0.171967  -0.101081
     4  C   -0.870651   1.025693
     5  C    0.856314  -1.398799
     6  C    0.856640  -1.399081
     7  C   -0.870745   1.025813
     8  C    0.584082  -1.064224
     9  C   -0.206908  -0.172059
    10  C    0.583932  -1.064078
    11  O   -0.239480   0.027604
    12  H   -0.342914   0.507344
    13  H   -0.342937   0.507359
    14  H   -0.319168   0.468855
    15  H   -0.495640   0.750101
    16  H   -0.163530   0.307996
    17  H   -0.310318   0.481928
    18  H   -0.310249   0.481855
    19  H   -0.163566   0.308039
    20  H   -0.495760   0.750235
    21  H    0.125335  -0.002361
    22  H   -0.195366   0.361934
    23  H    0.312615  -0.101786
    24  H    0.125377  -0.002399
    25  H   -0.195385   0.361947
    26  H    0.193885   0.042780
 Sum of Mulliken charges =  -1.00000   1.00000

 Dipole moment (field-independent basis, Debye):
    X=             -3.9124    Y=             -3.9871    Z=              0.0006  Tot=              5.5860
 Quadrupole moment (field-independent basis, Debye-Ang):
   XX=           -138.3345   YY=           -115.1994   ZZ=           -117.1648
   XY=             -3.3484   XZ=              0.0014   YZ=             -0.0003

 Summary of Natural Population Analysis:

                                       Natural Population
                Natural  -----------------------------------------------
    Atom  No    Charge         Core      Valence    Rydberg      Total
 -----------------------------------------------------------------------
      C    1   -0.34541      0.99962     2.33934    0.00645     3.34541
      S    2    0.16924      4.99958     2.80930    0.02188     7.83076
      N    3   -0.34503      0.99971     2.82731    0.01800     3.84503
      C    4   -0.00476      0.99958     1.98884    0.01634     3.00476
      C    5   -0.19321      0.99961     2.18448    0.00912     3.19321
      C    6   -0.19321      0.99961     2.18448    0.00912     3.19321
      C    7   -0.00476      0.99958     1.98884    0.01634     3.00476
      C    8   -0.21197      0.99959     2.20187    0.01051     3.21197
      C    9    0.06119      0.99953     1.92678    0.01250     2.93881
      C   10   -0.21197      0.99959     2.20187    0.01051     3.21197
      O   11   -0.36908      0.99990     3.36266    0.00652     4.36908
      H   12    0.10441      0.00000     0.39293    0.00266     0.39559
      H   13    0.10441      0.00000     0.39293    0.00266     0.39559
      H   14    0.10229      0.00000     0.39579    0.00192     0.39771
      H   15    0.10560      0.00000     0.39257    0.00183     0.39440
      H   16    0.09725      0.00000     0.40145    0.00131     0.40275
      H   17    0.10712      0.00000     0.39097    0.00192     0.39288
      H   18    0.10712      0.00000     0.39097    0.00192     0.39288
      H   19    0.09725      0.00000     0.40145    0.00131     0.40275
      H   20    0.10561      0.00000     0.39257    0.00183     0.39439
      H   21    0.09958      0.00000     0.39885    0.00157     0.40042
      H   22    0.10420      0.00000     0.39471    0.00110     0.39580
      H   23    0.08726      0.00000     0.41118    0.00156     0.41274
      H   24    0.09958      0.00000     0.39885    0.00157     0.40042
      H   25    0.10420      0.00000     0.39471    0.00110     0.39580
      H   26    0.22310      0.00000     0.27424    0.00266     0.27690
 =======================================================================
   * Total *   -0.00000     14.99588    31.83992    0.16420    47.00000

 Normal termination of Gaussian 16 at Tue Dec  8 20:19:40 2020.
