 Gaussian 16, Revision A.03,

 -----------------------------------------------------------
 # opt freq B3LYP/6-31G(d) empiricaldispersion=gd3bj scf=xqc
 -----------------------------------------------------------

 ------------------------------
 CID_20552968_JID_1772_neutraal
 ------------------------------
 Symbolic Z-matrix:
 Charge =  0 Multiplicity = 1

 SCF Done:  E(RB3LYP) =  -877.996086639     A.U. after   14 cycles
 SCF Done:  E(RB3LYP) =  -877.999656167     A.U. after   12 cycles
 SCF Done:  E(RB3LYP) =  -877.999873605     A.U. after   12 cycles
 SCF Done:  E(RB3LYP) =  -878.000382281     A.U. after   12 cycles
 SCF Done:  E(RB3LYP) =  -878.000542949     A.U. after   11 cycles
 SCF Done:  E(RB3LYP) =  -878.000600341     A.U. after   11 cycles
 SCF Done:  E(RB3LYP) =  -878.000622481     A.U. after   10 cycles
 SCF Done:  E(RB3LYP) =  -878.000645811     A.U. after   10 cycles
 SCF Done:  E(RB3LYP) =  -878.000669308     A.U. after   11 cycles
 SCF Done:  E(RB3LYP) =  -878.000674468     A.U. after    9 cycles
 SCF Done:  E(RB3LYP) =  -878.000675004     A.U. after    8 cycles
 SCF Done:  E(RB3LYP) =  -878.000675267     A.U. after    7 cycles
 Optimization completed.
    -- Stationary point found.
 Normal termination of Gaussian 16 at Tue Dec  8 21:08:18 2020.

 --------------------------------------------------------------------
 #N Geom=AllCheck Guess=TCheck SCRF=Check GenChk RB3LYP/6-31G(d) Freq
 --------------------------------------------------------------------

 Structure from the checkpoint file:  "JID_1772.chk"
 ------------------------------
 CID_20552968_JID_1772_neutraal
 ------------------------------
 Charge =  0 Multiplicity = 1

 SCF Done:  E(RB3LYP) =  -878.000675267     A.U. after    1 cycles

  Exact polarizability: 118.728  -2.044 100.273   1.586  -0.631  83.434
 Approx polarizability: 146.919  -8.819 158.505   0.575   3.085 129.183

                      1                      2                      3
                      A                      A                      A
 Frequencies --     42.4232                58.6050                66.9343
 Red. masses --      4.0123                 4.0177                 3.5278
 Frc consts  --      0.0043                 0.0081                 0.0093
 IR Inten    --      0.0359                 3.7911                 0.2391

                      4                      5                      6
                      A                      A                      A
 Frequencies --     91.0610               149.9111               164.9129
 Red. masses --      3.7870                 1.1711                 5.9024
 Frc consts  --      0.0185                 0.0155                 0.0946
 IR Inten    --      3.2069                 1.1830                 2.0367

                      7                      8                      9
                      A                      A                      A
 Frequencies --    212.4603               266.0117               295.8544
 Red. masses --      2.5013                 2.9594                 3.1525
 Frc consts  --      0.0665                 0.1234                 0.1626
 IR Inten    --      6.5527                10.6949                 4.2123

                     10                     11                     12
                      A                      A                      A
 Frequencies --    318.3476               380.0658               417.3079
 Red. masses --      2.7337                 5.2009                 1.8498
 Frc consts  --      0.1632                 0.4426                 0.1898
 IR Inten    --      9.4688                 0.3309                 0.7487

                     13                     14                     15
                      A                      A                      A
 Frequencies --    464.7849               486.5032               556.5664
 Red. masses --      2.7524                 2.6171                 4.4690
 Frc consts  --      0.3503                 0.3650                 0.8156
 IR Inten    --      4.4428                 0.8204                20.9721

                     16                     17                     18
                      A                      A                      A
 Frequencies --    605.2729               658.7204               705.5512
 Red. masses --      2.6631                 4.1495                 5.1453
 Frc consts  --      0.5748                 1.0608                 1.5091
 IR Inten    --      9.4593                 4.9903                 3.0793

                     19                     20                     21
                      A                      A                      A
 Frequencies --    738.6089               786.5625               865.6467
 Red. masses --      3.1363                 5.6920                 1.6840
 Frc consts  --      1.0081                 2.0748                 0.7435
 IR Inten    --      4.7560                 3.7557                 0.1964

                     22                     23                     24
                      A                      A                      A
 Frequencies --    872.3204               899.2509               940.6804
 Red. masses --      3.1718                 1.7424                 2.0404
 Frc consts  --      1.4220                 0.8302                 1.0638
 IR Inten    --     11.4995                 2.1538                 4.1164

                     25                     26                     27
                      A                      A                      A
 Frequencies --    985.8192              1003.1787              1026.0115
 Red. masses --      3.0275                 1.2213                 1.4911
 Frc consts  --      1.7335                 0.7242                 0.9248
 IR Inten    --     23.1878                 0.7133                19.7580

                     28                     29                     30
                      A                      A                      A
 Frequencies --   1039.2358              1076.3558              1104.1639
 Red. masses --      2.1812                 2.2598                 1.7466
 Frc consts  --      1.3880                 1.5425                 1.2546
 IR Inten    --      2.8519                15.1551                 5.6035

                     31                     32                     33
                      A                      A                      A
 Frequencies --   1143.3407              1155.4830              1179.0443
 Red. masses --      1.8918                 5.8883                 1.2906
 Frc consts  --      1.4571                 4.6320                 1.0571
 IR Inten    --     32.6896                98.3130                34.6127

                     34                     35                     36
                      A                      A                      A
 Frequencies --   1234.7753              1253.1772              1272.5761
 Red. masses --      2.3952                 1.2061                 1.2449
 Frc consts  --      2.1516                 1.1160                 1.1878
 IR Inten    --      1.7464                 0.3220                 9.6259

                     37                     38                     39
                      A                      A                      A
 Frequencies --   1291.8721              1313.6025              1342.9917
 Red. masses --      1.4560                 1.6555                 1.2252
 Frc consts  --      1.4317                 1.6831                 1.3019
 IR Inten    --    126.4716                78.9521                10.2602

                     40                     41                     42
                      A                      A                      A
 Frequencies --   1373.5481              1395.4924              1408.9172
 Red. masses --      1.2489                 1.1568                 1.2765
 Frc consts  --      1.3882                 1.3273                 1.4929
 IR Inten    --      1.2997                 0.3210                19.4821

                     43                     44                     45
                      A                      A                      A
 Frequencies --   1415.3343              1443.6039              1467.2386
 Red. masses --      1.3890                 1.3658                 2.2194
 Frc consts  --      1.6393                 1.6770                 2.8150
 IR Inten    --      2.8702                 4.2996               126.7323

                     46                     47                     48
                      A                      A                      A
 Frequencies --   1490.9333              1496.8512              1511.8474
 Red. masses --      1.2192                 1.1276                 1.0907
 Frc consts  --      1.5968                 1.4886                 1.4688
 IR Inten    --     40.9246                32.6482                11.3842

                     49                     50                     51
                      A                      A                      A
 Frequencies --   1513.5725              1514.3160              1520.1205
 Red. masses --      1.0826                 1.0598                 1.1076
 Frc consts  --      1.4612                 1.4319                 1.5080
 IR Inten    --      5.6407                11.3432                10.3765

                     52                     53                     54
                      A                      A                      A
 Frequencies --   1527.2972              1745.3740              2990.8598
 Red. masses --      1.1066                 9.9965                 1.0711
 Frc consts  --      1.5208                17.9421                 5.6451
 IR Inten    --      3.2121               286.5543                37.8009

                     55                     56                     57
                      A                      A                      A
 Frequencies --   3001.3163              3027.4073              3038.6829
 Red. masses --      1.0713                 1.0715                 1.0721
 Frc consts  --      5.6855                 5.7863                 5.8327
 IR Inten    --     58.3572                36.5605                40.3431

                     58                     59                     60
                      A                      A                      A
 Frequencies --   3070.3148              3100.9404              3117.6243
 Red. masses --      1.0302                 1.0590                 1.0941
 Frc consts  --      5.7217                 5.9996                 6.2653
 IR Inten    --     21.0312                 7.7568                38.1683

                     61                     62                     63
                      A                      A                      A
 Frequencies --   3121.9350              3154.0876              3156.2624
 Red. masses --      1.0953                 1.1059                 1.1046
 Frc consts  --      6.2895                 6.4820                 6.4831
 IR Inten    --     36.8416                14.8178                 1.7394

                     64                     65                     66
                      A                      A                      A
 Frequencies --   3164.4062              3166.1973              3171.3285
 Red. masses --      1.0919                 1.0935                 1.1064
 Frc consts  --      6.4417                 6.4589                 6.5559
 IR Inten    --      4.8089                16.8021                 3.2196

 - Thermochemistry -
 -------------------
 Temperature   298.150 Kelvin.  Pressure   1.00000 Atm.
 Atom     1 has atomic number  6 and mass  12.00000

 Molecular mass:   175.06670 amu.
 Principal axes and moments of inertia in atomic units:
                           1         2         3
     Eigenvalues --   932.768843334.325113826.81034
           X            0.99995  -0.00748   0.00637
           Y            0.00776   0.99889  -0.04655
           Z           -0.00602   0.04659   0.99890
 This molecule is an asymmetric top.
 Rotational symmetry number  1.
 Warning -- assumption of classical behavior for rotation
           may cause significant error
 Rotational temperatures (Kelvin)      0.09286     0.02598     0.02263
 Rotational constants (GHZ):           1.93482     0.54126     0.47160
 Zero-point vibrational energy     535758.3 (Joules/Mol)
                                  128.04932 (Kcal/Mol)
 Warning -- explicit consideration of  16 degrees of freedom as
           vibrations may cause significant error
 Vibrational temperatures:     61.04    84.32    96.30   131.02   215.69
          (Kelvin)            237.27   305.68   382.73   425.67   458.03
                              546.83   600.41   668.72   699.97   800.77
                              870.85   947.75  1015.13  1062.69  1131.69
                             1245.47  1255.07  1293.82  1353.43  1418.37
                             1443.35  1476.20  1495.23  1548.64  1588.65
                             1645.01  1662.48  1696.38  1776.57  1803.04
                             1830.95  1858.72  1889.98  1932.27  1976.23
                             2007.80  2027.12  2036.35  2077.02  2111.03
                             2145.12  2153.63  2175.21  2177.69  2178.76
                             2187.11  2197.44  2511.20  4303.18  4318.22
                             4355.76  4371.99  4417.50  4461.56  4485.57
                             4491.77  4538.03  4541.16  4552.87  4555.45
                             4562.83

 Zero-point correction=                           0.204060 (Hartree/Particle)
 Thermal correction to Energy=                    0.215696
 Thermal correction to Enthalpy=                  0.216640
 Thermal correction to Gibbs Free Energy=         0.165135
 Sum of electronic and zero-point Energies=           -877.796616
 Sum of electronic and thermal Energies=              -877.784980
 Sum of electronic and thermal Enthalpies=            -877.784035
 Sum of electronic and thermal Free Energies=         -877.835540

                     E (Thermal)             CV                S
                      KCal/Mol        Cal/Mol-Kelvin    Cal/Mol-Kelvin
 Total                  135.351             42.210            108.400
 Electronic               0.000              0.000              0.000
 Translational            0.889              2.981             41.387
 Rotational               0.889              2.981             30.854
 Vibrational            133.574             36.248             36.159
 Vibration     1          0.595              1.980              5.143
 Vibration     2          0.596              1.974              4.504
 Vibration     3          0.598              1.970              4.242
 Vibration     4          0.602              1.956              3.637
 Vibration     5          0.618              1.903              2.673
 Vibration     6          0.623              1.886              2.493
 Vibration     7          0.643              1.822              2.022
 Vibration     8          0.672              1.735              1.622
 Vibration     9          0.690              1.681              1.440
 Vibration    10          0.705              1.639              1.319
 Vibration    11          0.750              1.513              1.039
 Vibration    12          0.780              1.433              0.901
 Vibration    13          0.822              1.328              0.752
 Vibration    14          0.843              1.280              0.693
 Vibration    15          0.912              1.125              0.531
 Vibration    16          0.964              1.021              0.441

 Optimization completed.
    -- Stationary point found.
 Normal termination of Gaussian 16 at Tue Dec  8 21:14:30 2020.

 ----------------------------------------------------------------------
 # B3LYP/6-311++G(d,p) empiricaldispersion=gd3bj scf=xqc pop=npa geom=c
 heck
 ----------------------------------------------------------------------

 --------------------------------------
 CID_20552968_JID_1772_Energie_neutraal
 --------------------------------------
 Structure from the checkpoint file:  "JID_1772.chk"
 Charge =  0 Multiplicity = 1

 SCF Done:  E(RB3LYP) =  -878.168185328     A.U. after   14 cycles
 Normal termination of Gaussian 16 at Tue Dec  8 21:17:15 2020.

 ----------------------------------------------------------------------
 # B3LYP/6-311++G(d,p) empiricaldispersion=gd3bj scf=xqc pop=npa geom=c
 heck
 ----------------------------------------------------------------------

 ------------------------------------
 CID_20552968_JID_1772_Energie_kation
 ------------------------------------
 Structure from the checkpoint file:  "JID_1772.chk"
 Charge =  1 Multiplicity = 2

 SCF Done:  E(UB3LYP) =  -877.860249703     A.U. after   27 cycles
 Normal termination of Gaussian 16 at Tue Dec  8 21:24:38 2020.
 Gaussian 16:  ES64L-G16RevA.03 25-Dec-2016

 ----------------------------------------------------------------------
 # B3LYP/6-311++G(d,p) empiricaldispersion=gd3bj scf=xqc pop=npa geom=c
 heck
 ----------------------------------------------------------------------

 -----------------------------------
 CID_20552968_JID_1772_Energie_anion
 -----------------------------------
 Structure from the checkpoint file:  "JID_1772.chk"
 Charge = -1 Multiplicity = 2

                         Standard orientation:
 ---------------------------------------------------------------------
 Center     Atomic      Atomic             Coordinates (Angstroms)
 Number     Number       Type             X           Y           Z
 ---------------------------------------------------------------------
      1          6           0       -3.375617    0.457588   -0.883684
      2         16           0       -2.539786   -1.021764   -0.208298
      3          6           0       -1.578421   -0.224538    1.141439
      4          6           0       -0.552730    0.754920    0.588006
      5          8           0       -0.819595    1.954900    0.556886
      6          7           0        0.632492    0.258708    0.111045
      7          6           0        0.958206   -1.149655   -0.094600
      8          6           0        2.419563   -1.393178    0.285375
      9          8           0        3.292383   -0.529813   -0.423995
     10          6           0        2.989931    0.833177   -0.148777
     11          6           0        1.560112    1.175374   -0.552049
     12          1           0       -3.918141    0.132179   -1.774616
     13          1           0       -2.649118    1.226335   -1.154102
     14          1           0       -4.083797    0.866365   -0.157753
     15          1           0       -2.252839    0.348095    1.780890
     16          1           0       -1.143626   -1.035124    1.730498
     17          1           0        0.800613   -1.413538   -1.149806
     18          1           0        0.310495   -1.787802    0.505784
     19          1           0        2.542686   -1.249728    1.372018
     20          1           0        2.713252   -2.415027    0.028912
     21          1           0        3.704908    1.430404   -0.721175
     22          1           0        3.131884    1.041218    0.924322
     23          1           0        1.452774    1.079072   -1.642573
     24          1           0        1.291481    2.191990   -0.264322
 ---------------------------------------------------------------------

 SCF Done:  E(UB3LYP) =  -878.153458604     A.U. after   33 cycles
 SCF Done:  E(UB3LYP) =  -878.153458604     a.u. after    1 cycles

 The electronic state is 2-A.
 Alpha  occ. eigenvalues --  -88.74379 -19.02825 -18.98077 -14.24063 -10.16543
 Alpha  occ. eigenvalues --  -10.12003 -10.11533 -10.10386 -10.10109 -10.10018
 Alpha  occ. eigenvalues --  -10.09251  -7.82948  -5.79355  -5.78997  -5.78281
 Alpha  occ. eigenvalues --   -0.94741  -0.93259  -0.83326  -0.70614  -0.67977
 Alpha  occ. eigenvalues --   -0.63613  -0.60593  -0.56221  -0.52148  -0.49851
 Alpha  occ. eigenvalues --   -0.45205  -0.40380  -0.38371  -0.37828  -0.37605
 Alpha  occ. eigenvalues --   -0.36124  -0.34509  -0.33887  -0.32974  -0.31452
 Alpha  occ. eigenvalues --   -0.30940  -0.29653  -0.28506  -0.26939  -0.26084
 Alpha  occ. eigenvalues --   -0.25563  -0.22226  -0.21888  -0.17690  -0.15943
 Alpha  occ. eigenvalues --   -0.13816  -0.12483   0.04786
 Alpha virt. eigenvalues --    0.06834   0.07377   0.08121   0.08937   0.09577
 Alpha virt. eigenvalues --    0.09874   0.10551   0.11025   0.11332   0.12392
 Alpha virt. eigenvalues --    0.12782   0.13627   0.13859   0.14420   0.14817

  Beta  occ. eigenvalues --  -88.74371 -19.02815 -18.98010 -14.24081 -10.16477
  Beta  occ. eigenvalues --  -10.11980 -10.11492 -10.10356 -10.10086 -10.10001
  Beta  occ. eigenvalues --  -10.09227  -7.82937  -5.79342  -5.78990  -5.78274
  Beta  occ. eigenvalues --   -0.94713  -0.93152  -0.83301  -0.70562  -0.67932
  Beta  occ. eigenvalues --   -0.63537  -0.60546  -0.56158  -0.52056  -0.49774
  Beta  occ. eigenvalues --   -0.45142  -0.40270  -0.38324  -0.37790  -0.37543
  Beta  occ. eigenvalues --   -0.36045  -0.34444  -0.33851  -0.32946  -0.31408
  Beta  occ. eigenvalues --   -0.30871  -0.29597  -0.28355  -0.26872  -0.26043
  Beta  occ. eigenvalues --   -0.25427  -0.22179  -0.21830  -0.17612  -0.15882
  Beta  occ. eigenvalues --   -0.13741  -0.12453
  Beta virt. eigenvalues --    0.06999   0.07633   0.08443   0.08676   0.09515
  Beta virt. eigenvalues --    0.09881   0.10433   0.11044   0.11542   0.11703
  Beta virt. eigenvalues --    0.12722   0.13115   0.13757   0.14038   0.14763

 Mulliken charges and spin densities:
               1          2
     1  C    0.111582  -0.847620
     2  S   -0.402526   0.712777
     3  C    0.929291  -1.250971
     4  C   -0.818832   0.526635
     5  O   -0.343610   0.027762
     6  N   -0.022901   0.156755
     7  C    0.037606  -0.140524
     8  C    1.297055  -1.791465
     9  O   -0.233358   0.115050
    10  C    0.641003  -0.985783
    11  C   -0.130597   0.088343
    12  H   -0.167188   0.319173
    13  H    0.103123   0.108275
    14  H    0.009968   0.143777
    15  H    0.032718   0.224867
    16  H   -0.540605   0.752587
    17  H   -0.008935   0.182415
    18  H   -0.328350   0.484868
    19  H   -0.263586   0.411146
    20  H   -0.499362   0.699547
    21  H   -0.171297   0.353530
    22  H   -0.090821   0.226225
    23  H   -0.141746   0.304053
    24  H    0.001366   0.178577
 Sum of Mulliken charges =  -1.00000   1.00000

 Dipole moment (field-independent basis, Debye):
    X=             -1.4498    Y=              2.7829    Z=             -1.2917  Tot=              3.3934
 Quadrupole moment (field-independent basis, Debye-Ang):
   XX=           -131.0352   YY=           -118.7220   ZZ=           -106.7488
   XY=              3.8895   XZ=              1.7300   YZ=              3.3731

 Summary of Natural Population Analysis:

                                       Natural Population
                Natural  -----------------------------------------------
    Atom  No    Charge         Core      Valence    Rydberg      Total
 -----------------------------------------------------------------------
      C    1   -0.34927      0.99962     2.34386    0.00579     3.34927
      S    2    0.09441      4.99965     2.88741    0.01853     7.90559
      C    3   -0.28952      0.99956     2.27774    0.01222     3.28952
      C    4    0.34444      0.99962     1.63114    0.02481     2.65556
      O    5   -0.32581      0.99988     3.32028    0.00565     4.32581
      N    6   -0.26035      0.99964     2.74869    0.01202     3.76035
      C    7   -0.09799      0.99960     2.08608    0.01231     3.09799
      C    8   -0.01434      0.99958     2.00047    0.01429     3.01434
      O    9   -0.29818      0.99989     3.28832    0.00996     4.29818
      C   10   -0.01214      0.99958     2.00154    0.01102     3.01214
      C   11   -0.10048      0.99961     2.09136    0.00951     3.10048
      H   12    0.10423      0.00000     0.39428    0.00149     0.39577
      H   13    0.11028      0.00000     0.38807    0.00165     0.38972
      H   14    0.09933      0.00000     0.39894    0.00174     0.40067
      H   15    0.11310      0.00000     0.38548    0.00142     0.38690
      H   16    0.11791      0.00000     0.37873    0.00336     0.38209
      H   17    0.09546      0.00000     0.40216    0.00238     0.40454
      H   18    0.10919      0.00000     0.38778    0.00303     0.39081
      H   19    0.08039      0.00000     0.41718    0.00243     0.41961
      H   20    0.09656      0.00000     0.40121    0.00224     0.40344
      H   21    0.09254      0.00000     0.40580    0.00166     0.40746
      H   22    0.07961      0.00000     0.41854    0.00185     0.42039
      H   23    0.09254      0.00000     0.40589    0.00157     0.40746
      H   24    0.11810      0.00000     0.38055    0.00136     0.38190
 =======================================================================
   * Total *    0.00000     14.99622    31.84148    0.16230    47.00000

 Normal termination of Gaussian 16 at Tue Dec  8 21:33:19 2020.
