 Gaussian 16, Revision A.03,

 -----------------------------------------------------------
 # opt freq B3LYP/6-31G(d) empiricaldispersion=gd3bj scf=xqc
 -----------------------------------------------------------

 -------------------------------
 CID_117223121_JID_9479_neutraal
 -------------------------------
 Symbolic Z-matrix:
 Charge =  0 Multiplicity = 1

 SCF Done:  E(RB3LYP) =  -862.321066695     A.U. after   15 cycles
 SCF Done:  E(RB3LYP) =  -862.325298222     A.U. after   12 cycles
 SCF Done:  E(RB3LYP) =  -862.325890776     A.U. after   11 cycles
 SCF Done:  E(RB3LYP) =  -862.326245163     A.U. after   12 cycles
 SCF Done:  E(RB3LYP) =  -862.326526221     A.U. after   13 cycles
 SCF Done:  E(RB3LYP) =  -862.326726232     A.U. after   13 cycles
 SCF Done:  E(RB3LYP) =  -862.326966349     A.U. after   13 cycles
 SCF Done:  E(RB3LYP) =  -862.327207730     A.U. after   12 cycles
 SCF Done:  E(RB3LYP) =  -862.327248543     A.U. after   12 cycles
 SCF Done:  E(RB3LYP) =  -862.327267857     A.U. after   10 cycles
 SCF Done:  E(RB3LYP) =  -862.327277545     A.U. after   10 cycles
 SCF Done:  E(RB3LYP) =  -862.327277813     A.U. after    7 cycles
 SCF Done:  E(RB3LYP) =  -862.327278281     A.U. after    8 cycles
 SCF Done:  E(RB3LYP) =  -862.327278347     A.U. after    7 cycles
 SCF Done:  E(RB3LYP) =  -862.327278363     A.U. after    6 cycles
 Optimization completed.
    -- Stationary point found.
 Normal termination of Gaussian 16 at Sun Dec 13 20:23:50 2020.

 --------------------------------------------------------------------
 #N Geom=AllCheck Guess=TCheck SCRF=Check GenChk RB3LYP/6-31G(d) Freq
 --------------------------------------------------------------------

 Structure from the checkpoint file:  "JID_9479.chk"
 -------------------------------
 CID_117223121_JID_9479_neutraal
 -------------------------------
 Charge =  0 Multiplicity = 1

 SCF Done:  E(RB3LYP) =  -862.327278363     A.U. after    1 cycles

  Exact polarizability: 288.203   5.537 151.570  -6.163  14.964 112.376
 Approx polarizability: 383.845  18.908 246.112  -7.490  41.030 183.724

                      1                      2                      3
                      A                      A                      A
 Frequencies --     25.4836                42.2996                49.5614
 Red. masses --      3.7579                 4.0932                 5.8938
 Frc consts  --      0.0014                 0.0043                 0.0085
 IR Inten    --      0.5716                 0.2747                 1.1252

                      4                      5                      6
                      A                      A                      A
 Frequencies --     71.9480                82.6015                91.6629
 Red. masses --      4.1518                 2.7522                 3.5044
 Frc consts  --      0.0127                 0.0111                 0.0173
 IR Inten    --      0.0360                 1.0265                 2.0309

                      7                      8                      9
                      A                      A                      A
 Frequencies --    117.0690               134.2140               145.3487
 Red. masses --      2.7477                 2.6469                 1.5268
 Frc consts  --      0.0222                 0.0281                 0.0190
 IR Inten    --      2.8136                 0.8953                 0.1781

                     10                     11                     12
                      A                      A                      A
 Frequencies --    153.5987               190.7547               211.3548
 Red. masses --      3.9557                 4.1775                 1.6044
 Frc consts  --      0.0550                 0.0896                 0.0422
 IR Inten    --      1.1563                 1.2414                 0.5286

                     13                     14                     15
                      A                      A                      A
 Frequencies --    229.5174               235.4597               270.2616
 Red. masses --      1.5808                 2.9764                 1.5284
 Frc consts  --      0.0491                 0.0972                 0.0658
 IR Inten    --      0.6150                 1.7880                 1.0368

                     16                     17                     18
                      A                      A                      A
 Frequencies --    274.2057               328.3165               356.1715
 Red. masses --      4.5468                 3.9859                 3.6699
 Frc consts  --      0.2014                 0.2531                 0.2743
 IR Inten    --      3.2968                10.9467                 3.7679

                     19                     20                     21
                      A                      A                      A
 Frequencies --    378.7577               405.6100               416.3202
 Red. masses --      3.1244                 5.5449                 5.5190
 Frc consts  --      0.2641                 0.5375                 0.5636
 IR Inten    --      7.6733                 6.9534                 0.3277

                     22                     23                     24
                      A                      A                      A
 Frequencies --    428.8370               445.3231               499.4292
 Red. masses --      3.2413                 4.0694                 3.8823
 Frc consts  --      0.3512                 0.4755                 0.5705
 IR Inten    --      0.3408                 4.2915                 2.5777

                     25                     26                     27
                      A                      A                      A
 Frequencies --    537.8281               580.5102               628.8952
 Red. masses --      3.1813                 3.3313                 4.8056
 Frc consts  --      0.5422                 0.6614                 1.1198
 IR Inten    --      4.4741                11.9443                 1.6306

                     28                     29                     30
                      A                      A                      A
 Frequencies --    631.5296               650.2621               690.1777
 Red. masses --      4.8413                 6.0308                 3.7688
 Frc consts  --      1.1376                 1.5025                 1.0577
 IR Inten    --      8.0914                 1.2313                 4.0020

                     31                     32                     33
                      A                      A                      A
 Frequencies --    709.8263               737.6879               745.0968
 Red. masses --      4.8444                 4.1507                 5.2632
 Frc consts  --      1.4381                 1.3308                 1.7216
 IR Inten    --      1.0628                 1.2029                29.4210

                     34                     35                     36
                      A                      A                      A
 Frequencies --    799.3724               804.9836               813.9274
 Red. masses --      1.5303                 1.4541                 3.1120
 Frc consts  --      0.5761                 0.5552                 1.2147
 IR Inten    --     26.0455                 6.3082                 8.8072

                     37                     38                     39
                      A                      A                      A
 Frequencies --    823.5221               830.4210               853.2857
 Red. masses --      4.5157                 1.2884                 1.6278
 Frc consts  --      1.8044                 0.5235                 0.6983
 IR Inten    --      3.1156                 4.4376                39.4791

                     40                     41                     42
                      A                      A                      A
 Frequencies --    891.6469               942.4484               951.0513
 Red. masses --      1.3558                 4.9626                 1.3203
 Frc consts  --      0.6351                 2.5970                 0.7036
 IR Inten    --      1.0886                 5.9751                 0.2355

                     43                     44                     45
                      A                      A                      A
 Frequencies --    967.3867               972.3749              1014.4483
 Red. masses --      1.6996                 1.6454                 3.7648
 Frc consts  --      0.9371                 0.9166                 2.2827
 IR Inten    --      0.2794                 0.0440                12.3587

                     46                     47                     48
                      A                      A                      A
 Frequencies --   1032.8065              1055.5014              1077.8169
 Red. masses --      2.9215                 1.6615                 4.0153
 Frc consts  --      1.8361                 1.0906                 2.7483
 IR Inten    --      0.4099                 6.0300                26.9108

                     49                     50                     51
                      A                      A                      A
 Frequencies --   1091.9689              1118.8198              1143.1469
 Red. masses --      2.2567                 1.9676                 1.4454
 Frc consts  --      1.5854                 1.4511                 1.1128
 IR Inten    --     67.1418                 5.4539                34.9728

                     52                     53                     54
                      A                      A                      A
 Frequencies --   1148.0904              1185.7893              1186.4977
 Red. masses --      2.8601                 1.2725                 1.2713
 Frc consts  --      2.2212                 1.0542                 1.0545
 IR Inten    --    250.9382                 0.9097                 0.7486

                     55                     56                     57
                      A                      A                      A
 Frequencies --   1200.6623              1211.2321              1219.2708
 Red. masses --      1.7517                 1.1837                 1.5013
 Frc consts  --      1.4878                 1.0231                 1.3150
 IR Inten    --     31.0568                59.0496                54.9863

                     58                     59                     60
                      A                      A                      A
 Frequencies --   1220.1353              1252.7692              1278.0783
 Red. masses --      1.3958                 4.9339                 2.1159
 Frc consts  --      1.2243                 4.5622                 2.0364
 IR Inten    --      5.3520                10.6923               232.6612

                     61                     62                     63
                      A                      A                      A
 Frequencies --   1303.1625              1321.2836              1343.6230
 Red. masses --      4.3562                 1.7872                 1.4189
 Frc consts  --      4.3587                 1.8383                 1.5093
 IR Inten    --    260.9845                87.6553                 3.9430

                     64                     65                     66
                      A                      A                      A
 Frequencies --   1353.7045              1388.9492              1409.1485
 Red. masses --      4.6899                 5.5051                 1.4702
 Frc consts  --      5.0637                 6.2573                 1.7200
 IR Inten    --     62.1764               201.3928                 7.7886

                     67                     68                     69
                      A                      A                      A
 Frequencies --   1432.9873              1436.4865              1446.6680
 Red. masses --      1.5353                 2.6854                 2.1581
 Frc consts  --      1.8576                 3.2649                 2.6611
 IR Inten    --     34.4328                51.5568                10.0397

                     70                     71                     72
                      A                      A                      A
 Frequencies --   1471.4287              1488.8877              1498.9669
 Red. masses --      3.2651                 1.2834                 1.2532
 Frc consts  --      4.1651                 1.6763                 1.6590
 IR Inten    --     10.4405                 2.2822                75.8105

                     73                     74                     75
                      A                      A                      A
 Frequencies --   1510.5948              1519.8591              1520.8935
 Red. masses --      1.0490                 1.3575                 1.4535
 Frc consts  --      1.4103                 1.8476                 1.9809
 IR Inten    --      4.7907               112.2188               141.9755

                     76                     77                     78
                      A                      A                      A
 Frequencies --   1521.5491              1525.2321              1528.4703
 Red. masses --      1.0526                 1.1565                 1.1157
 Frc consts  --      1.4357                 1.5851                 1.5357
 IR Inten    --      5.5264                 7.2501                31.3925

                     79                     80                     81
                      A                      A                      A
 Frequencies --   1535.8354              1536.3115              1572.0030
 Red. masses --      1.0829                 1.0977                 3.5297
 Frc consts  --      1.5050                 1.5265                 5.1392
 IR Inten    --      8.1069                 5.8314                29.1295

                     82                     83                     84
                      A                      A                      A
 Frequencies --   1599.1059              1625.7276              1676.2993
 Red. masses --      4.8400                 6.7926                 5.8152
 Frc consts  --      7.2921                10.5775                 9.6276
 IR Inten    --    110.9985                10.8032                73.1111

                     85                     86                     87
                      A                      A                      A
 Frequencies --   1782.5572              3027.5833              3059.8675
 Red. masses --     11.6686                 1.0347                 1.0361
 Frc consts  --     21.8452                 5.5882                 5.7158
 IR Inten    --    432.2951                63.2271                19.7290

                     88                     89                     90
                      A                      A                      A
 Frequencies --   3074.7465              3086.9677              3122.9115
 Red. masses --      1.0290                 1.1067                 1.0935
 Frc consts  --      5.7319                 6.2137                 6.2834
 IR Inten    --     48.9768                41.5931                 8.6692

                     91                     92                     93
                      A                      A                      A
 Frequencies --   3137.3683              3148.8601              3149.3815
 Red. masses --      1.0745                 1.0949                 1.1069
 Frc consts  --      6.2317                 6.3963                 6.4686
 IR Inten    --     22.2282                20.4536                21.9999

                     94                     95                     96
                      A                      A                      A
 Frequencies --   3161.9640              3176.8775              3185.7125
 Red. masses --      1.0999                 1.1074                 1.1062
 Frc consts  --      6.4789                 6.5848                 6.6144
 IR Inten    --     28.9416                17.7133                13.2853

                     97                     98                     99
                      A                      A                      A
 Frequencies --   3195.7014              3200.7284              3218.9251
 Red. masses --      1.0888                 1.0892                 1.0939
 Frc consts  --      6.5515                 6.5743                 6.6778
 IR Inten    --      6.9986                 8.6047                 7.0545

                    100                    101                    102
                      A                      A                      A
 Frequencies --   3231.0373              3261.1033              3284.2213
 Red. masses --      1.0918                 1.0930                 1.0994
 Frc consts  --      6.7152                 6.8487                 6.9868
 IR Inten    --     12.6527                 4.1285                 0.6376

 - Thermochemistry -
 -------------------
 Temperature   298.150 Kelvin.  Pressure   1.00000 Atm.
 Atom     1 has atomic number  6 and mass  12.00000

 Molecular mass:   259.12084 amu.
 Principal axes and moments of inertia in atomic units:
                           1         2         3
     Eigenvalues --  1637.48415********************
           X            0.99994  -0.01037  -0.00369
           Y            0.01036   0.99994  -0.00236
           Z            0.00371   0.00232   0.99999
 This molecule is an asymmetric top.
 Rotational symmetry number  1.
 Warning -- assumption of classical behavior for rotation
           may cause significant error
 Rotational temperatures (Kelvin)      0.05289     0.00768     0.00717
 Rotational constants (GHZ):           1.10214     0.16013     0.14938
 Zero-point vibrational energy     781502.8 (Joules/Mol)
                                  186.78365 (Kcal/Mol)
 Warning -- explicit consideration of  26 degrees of freedom as
           vibrations may cause significant error
 Vibrational temperatures:     36.67    60.86    71.31   103.52   118.85
          (Kelvin)            131.88   168.44   193.10   209.12   220.99
                              274.45   304.09   330.22   338.77   388.85
                              394.52   472.37   512.45   544.95   583.58
                              598.99   617.00   640.72   718.57   773.81
                              835.22   904.84   908.63   935.58   993.01
                             1021.28  1061.37  1072.03  1150.12  1158.19
                             1171.06  1184.86  1194.79  1227.69  1282.88
                             1355.97  1368.35  1391.85  1399.03  1459.56
                             1485.98  1518.63  1550.74  1571.10  1609.73
                             1644.73  1651.85  1706.09  1707.11  1727.49
                             1742.69  1754.26  1755.50  1802.46  1838.87
                             1874.96  1901.03  1933.17  1947.68  1998.39
                             2027.45  2061.75  2066.78  2081.43  2117.06
                             2142.18  2156.68  2173.41  2186.74  2188.23
                             2189.17  2194.47  2199.13  2209.72  2210.41
                             2261.76  2300.76  2339.06  2411.82  2564.70
                             4356.02  4402.47  4423.87  4441.46  4493.17
                             4513.97  4530.51  4531.26  4549.36  4570.82
                             4583.53  4597.90  4605.13  4631.32  4648.74
                             4692.00  4725.26

 Zero-point correction=                           0.297659 (Hartree/Particle)
 Thermal correction to Energy=                    0.315888
 Thermal correction to Enthalpy=                  0.316832
 Thermal correction to Gibbs Free Energy=         0.250102
 Sum of electronic and zero-point Energies=           -862.029620
 Sum of electronic and thermal Energies=              -862.011391
 Sum of electronic and thermal Enthalpies=            -862.010446
 Sum of electronic and thermal Free Energies=         -862.077176

                     E (Thermal)             CV                S
                      KCal/Mol        Cal/Mol-Kelvin    Cal/Mol-Kelvin
 Total                  198.223             67.908            140.444
 Electronic               0.000              0.000              0.000
 Translational            0.889              2.981             42.556
 Rotational               0.889              2.981             33.766
 Vibrational            196.445             61.946             64.122
 Vibration     1          0.593              1.985              6.153
 Vibration     2          0.595              1.980              5.148
 Vibration     3          0.595              1.978              4.835
 Vibration     4          0.598              1.967              4.099
 Vibration     5          0.600              1.961              3.828
 Vibration     6          0.602              1.955              3.624
 Vibration     7          0.608              1.935              3.148
 Vibration     8          0.613              1.919              2.885
 Vibration     9          0.617              1.908              2.732
 Vibration    10          0.619              1.899              2.627
 Vibration    11          0.634              1.853              2.220
 Vibration    12          0.643              1.824              2.032
 Vibration    13          0.652              1.796              1.883
 Vibration    14          0.655              1.787              1.837
 Vibration    15          0.674              1.728              1.595
 Vibration    16          0.677              1.721              1.570
 Vibration    17          0.712              1.619              1.268
 Vibration    18          0.732              1.563              1.139
 Vibration    19          0.749              1.515              1.044
 Vibration    20          0.771              1.458              0.942
 Vibration    21          0.780              1.435              0.905
 Vibration    22          0.790              1.407              0.862
 Vibration    23          0.805              1.371              0.810
 Vibration    24          0.855              1.251              0.660
 Vibration    25          0.893              1.166              0.570
 Vibration    26          0.937              1.073              0.484

 Optimization completed.
    -- Stationary point found.
 Normal termination of Gaussian 16 at Sun Dec 13 20:39:20 2020.

 ----------------------------------------------------------------------
 # B3LYP/6-311++G(d,p) empiricaldispersion=gd3bj scf=xqc pop=npa geom=c
 heck
 ----------------------------------------------------------------------

 ---------------------------------------
 CID_117223121_JID_9479_Energie_neutraal
 ---------------------------------------
 Structure from the checkpoint file:  "JID_9479.chk"
 Charge =  0 Multiplicity = 1

 SCF Done:  E(RB3LYP) =  -862.561387334     A.U. after   16 cycles
 Normal termination of Gaussian 16 at Sun Dec 13 20:45:40 2020.

 ----------------------------------------------------------------------
 # B3LYP/6-311++G(d,p) empiricaldispersion=gd3bj scf=xqc pop=npa geom=c
 heck
 ----------------------------------------------------------------------

 -------------------------------------
 CID_117223121_JID_9479_Energie_kation
 -------------------------------------
 Structure from the checkpoint file:  "JID_9479.chk"
 Charge =  1 Multiplicity = 2

 SCF Done:  E(UB3LYP) =  -862.292630637     A.U. after   24 cycles
 Normal termination of Gaussian 16 at Sun Dec 13 20:58:29 2020.
 Gaussian 16:  ES64L-G16RevA.03 25-Dec-2016

 ----------------------------------------------------------------------
 # B3LYP/6-311++G(d,p) empiricaldispersion=gd3bj scf=xqc pop=npa geom=c
 heck
 ----------------------------------------------------------------------

 ------------------------------------
 CID_117223121_JID_9479_Energie_anion
 ------------------------------------
 Structure from the checkpoint file:  "JID_9479.chk"
 Charge = -1 Multiplicity = 2

                         Standard orientation:
 ---------------------------------------------------------------------
 Center     Atomic      Atomic             Coordinates (Angstroms)
 Number     Number       Type             X           Y           Z
 ---------------------------------------------------------------------
      1          6           0       -1.317971    1.779834   -1.535850
      2          6           0       -1.125744    1.408713   -0.066340
      3          7           0       -1.228069   -0.038745    0.152980
      4          6           0       -0.147111   -0.897810    0.126846
      5          6           0       -0.627080   -2.203313    0.055868
      6          6           0       -2.030260   -2.140910    0.034258
      7          6           0       -2.395854   -0.800487    0.083300
      8          6           0       -3.781357   -0.342963    0.091632
      9          8           0       -4.737740   -1.093710    0.018372
     10          8           0       -3.925888    1.009238    0.191977
     11          6           0       -5.284514    1.467176    0.202824
     12          6           0        1.255534   -0.460876    0.180340
     13          6           0        1.741794    0.379348    1.200512
     14          6           0        3.077328    0.747614    1.250516
     15          6           0        3.976964    0.272082    0.284882
     16          6           0        3.517983   -0.578683   -0.726314
     17          6           0        2.168640   -0.932148   -0.770008
     18          8           0        5.266966    0.689905    0.421390
     19          6           0        6.219388    0.224513   -0.520987
     20          1           0       -0.570135    1.278030   -2.158645
     21          1           0       -1.207088    2.862121   -1.666459
     22          1           0       -2.314215    1.492352   -1.881402
     23          1           0       -0.135504    1.715447    0.268503
     24          1           0       -1.867113    1.902301    0.559822
     25          1           0       -0.007033   -3.088841    0.071379
     26          1           0       -2.736197   -2.958298    0.013974
     27          1           0       -5.798906    1.169711   -0.714586
     28          1           0       -5.823669    1.052981    1.058723
     29          1           0       -5.224739    2.553731    0.275433
     30          1           0        1.064042    0.724536    1.975850
     31          1           0        3.455711    1.390967    2.038144
     32          1           0        4.191873   -0.962159   -1.483036
     33          1           0        1.812558   -1.581329   -1.564309
     34          1           0        6.304934   -0.869738   -0.498867
     35          1           0        5.966591    0.545295   -1.540065
     36          1           0        7.172233    0.668106   -0.228103
 ---------------------------------------------------------------------

 SCF Done:  E(UB3LYP) =  -862.556142943     A.U. after   33 cycles
 SCF Done:  E(UB3LYP) =  -862.556142943     a.u. after    1 cycles

 The electronic state is 2-A.
 Alpha  occ. eigenvalues --  -19.05586 -19.05540 -18.97851 -14.24730 -10.17098
 Alpha  occ. eigenvalues --  -10.13135 -10.13050 -10.12545 -10.10432 -10.08842
 Alpha  occ. eigenvalues --  -10.08064 -10.07736 -10.07545 -10.07344 -10.07270
 Alpha  occ. eigenvalues --  -10.07265 -10.06644 -10.04821 -10.04764  -0.99140
 Alpha  occ. eigenvalues --   -0.97252  -0.89676  -0.87435  -0.75724  -0.70681
 Alpha  occ. eigenvalues --   -0.67663  -0.65373  -0.64545  -0.63101  -0.61660
 Alpha  occ. eigenvalues --   -0.58566  -0.53751  -0.51795  -0.51184  -0.48446
 Alpha  occ. eigenvalues --   -0.46135  -0.44493  -0.43528  -0.42135  -0.39173
 Alpha  occ. eigenvalues --   -0.38288  -0.38230  -0.37403  -0.37089  -0.35140
 Alpha  occ. eigenvalues --   -0.34893  -0.34560  -0.33078  -0.32461  -0.32004
 Alpha  occ. eigenvalues --   -0.31348  -0.30233  -0.29311  -0.28362  -0.28144
 Alpha  occ. eigenvalues --   -0.27835  -0.26834  -0.26404  -0.26119  -0.25453
 Alpha  occ. eigenvalues --   -0.24379  -0.23205  -0.22388  -0.20054  -0.16480
 Alpha  occ. eigenvalues --   -0.16007  -0.14004  -0.13788  -0.09983   0.04106
 Alpha virt. eigenvalues --    0.05527   0.06299   0.07704   0.07963   0.08173
 Alpha virt. eigenvalues --    0.08462   0.09079   0.09308   0.09657   0.09920
 Alpha virt. eigenvalues --    0.10416   0.10893   0.10944   0.11894   0.12080

  Beta  occ. eigenvalues --  -19.05558 -19.05488 -18.97668 -14.24575 -10.16921
  Beta  occ. eigenvalues --  -10.13133 -10.12945 -10.12497 -10.10437 -10.08722
  Beta  occ. eigenvalues --  -10.08029 -10.07706 -10.07506 -10.07356 -10.07284
  Beta  occ. eigenvalues --  -10.07198 -10.06628 -10.04854 -10.04699  -0.98952
  Beta  occ. eigenvalues --   -0.97174  -0.89393  -0.87201  -0.75617  -0.70591
  Beta  occ. eigenvalues --   -0.67467  -0.65279  -0.64382  -0.63013  -0.61556
  Beta  occ. eigenvalues --   -0.58457  -0.53684  -0.51684  -0.50959  -0.48318
  Beta  occ. eigenvalues --   -0.46044  -0.44388  -0.43433  -0.42058  -0.39079
  Beta  occ. eigenvalues --   -0.38104  -0.38008  -0.37280  -0.37012  -0.35059
  Beta  occ. eigenvalues --   -0.34691  -0.34482  -0.32988  -0.32389  -0.31942
  Beta  occ. eigenvalues --   -0.31146  -0.30110  -0.28826  -0.28192  -0.28031
  Beta  occ. eigenvalues --   -0.27726  -0.26708  -0.26330  -0.26011  -0.25212
  Beta  occ. eigenvalues --   -0.24311  -0.23153  -0.22160  -0.19446  -0.16310
  Beta  occ. eigenvalues --   -0.15823  -0.13507  -0.13308  -0.09387
  Beta virt. eigenvalues --    0.06160   0.06572   0.07551   0.08006   0.08137
  Beta virt. eigenvalues --    0.08289   0.08562   0.09274   0.09659   0.10049
  Beta virt. eigenvalues --    0.10362   0.10533   0.10861   0.11037   0.11881

 Mulliken charges and spin densities:
               1          2
     1  C   -0.321257  -0.196120
     2  C   -0.296174   0.040413
     3  N    0.285273   0.062289
     4  C    0.041105   0.005561
     5  C   -0.137521  -0.102244
     6  C   -0.252225   0.136858
     7  C    0.504093  -0.051327
     8  C   -0.587629   0.106477
     9  O   -0.354224   0.062159
    10  O   -0.148582   0.010521
    11  C   -0.157039  -0.093390
    12  C    0.947165  -0.345348
    13  C   -0.152698   0.178653
    14  C   -0.543370   0.043899
    15  C   -0.885543   0.262807
    16  C    0.292509  -0.178478
    17  C   -0.223787  -0.199343
    18  O   -0.209306   0.062421
    19  C    0.831630  -1.161683
    20  H    0.125735   0.032518
    21  H   -0.033895   0.160622
    22  H    0.147358   0.000934
    23  H    0.071428   0.031662
    24  H    0.195894   0.019275
    25  H    0.148271  -0.003194
    26  H    0.163206   0.004137
    27  H    0.157373   0.015354
    28  H    0.143347   0.027094
    29  H    0.047910   0.071553
    30  H    0.143619   0.047314
    31  H    0.131433   0.043406
    32  H   -0.087822   0.273372
    33  H    0.041997   0.125298
    34  H   -0.285018   0.440398
    35  H   -0.167419   0.319620
    36  H   -0.575838   0.746512
 Sum of Mulliken charges =  -1.00000   1.00000

 Dipole moment (field-independent basis, Debye):
    X=             -5.7318    Y=              2.2644    Z=              1.4148  Tot=              6.3232
 Quadrupole moment (field-independent basis, Debye-Ang):
   XX=           -244.7154   YY=           -136.2528   ZZ=           -131.2300
   XY=            -14.4830   XZ=              6.5861   YZ=              2.5113

 Summary of Natural Population Analysis:

                                       Natural Population
                Natural  -----------------------------------------------
    Atom  No    Charge         Core      Valence    Rydberg      Total
 -----------------------------------------------------------------------
      C    1   -0.28785      0.99966     2.28403    0.00416     3.28785
      C    2   -0.08897      0.99962     2.07892    0.01043     3.08897
      N    3   -0.17367      0.99960     2.66509    0.00898     3.67367
      C    4    0.10441      0.99951     1.88209    0.01400     2.89559
      C    5   -0.15363      0.99952     2.14682    0.00730     3.15363
      C    6   -0.09399      0.99954     2.08636    0.00808     3.09399
      C    7    0.01151      0.99946     1.97696    0.01208     2.98849
      C    8    0.40341      0.99961     1.57377    0.02321     2.59659
      O    9   -0.30563      0.99988     3.30064    0.00511     4.30563
      O   10   -0.28582      0.99987     3.27819    0.00776     4.28582
      C   11   -0.10416      0.99961     2.09610    0.00845     3.10416
      C   12   -0.05068      0.99949     2.04128    0.00991     3.05068
      C   13   -0.08466      0.99953     2.07727    0.00786     3.08466
      C   14   -0.12615      0.99952     2.11726    0.00937     3.12615
      C   15    0.17472      0.99939     1.81185    0.01404     2.82528
      C   16   -0.15201      0.99952     2.14383    0.00866     3.15201
      C   17   -0.06752      0.99954     2.05833    0.00965     3.06752
      O   18   -0.27237      0.99986     3.26260    0.00991     4.27237
      C   19   -0.10051      0.99960     2.09173    0.00917     3.10051
      H   20    0.10045      0.00000     0.39861    0.00095     0.39955
      H   21    0.09590      0.00000     0.40291    0.00119     0.40410
      H   22    0.10160      0.00000     0.39722    0.00119     0.39840
      H   23    0.10256      0.00000     0.39604    0.00140     0.39744
      H   24    0.10532      0.00000     0.39337    0.00131     0.39468
      H   25    0.10261      0.00000     0.39656    0.00083     0.39739
      H   26    0.10720      0.00000     0.39196    0.00083     0.39280
      H   27    0.08857      0.00000     0.40986    0.00156     0.41143
      H   28    0.08867      0.00000     0.40978    0.00155     0.41133
      H   29    0.08515      0.00000     0.41381    0.00104     0.41485
      H   30    0.10076      0.00000     0.39831    0.00093     0.39924
      H   31    0.10390      0.00000     0.39508    0.00102     0.39610
      H   32    0.10566      0.00000     0.39311    0.00123     0.39434
      H   33    0.10160      0.00000     0.39740    0.00100     0.39840
      H   34    0.08582      0.00000     0.41206    0.00212     0.41418
      H   35    0.08373      0.00000     0.41467    0.00159     0.41627
      H   36    0.09406      0.00000     0.40441    0.00153     0.40594
 =======================================================================
   * Total *   -0.00000     18.99231    49.79828    0.20941    69.00000

 Normal termination of Gaussian 16 at Sun Dec 13 21:16:12 2020.
