 Gaussian 16, Revision A.03,

 -----------------------------------------------------------
 # opt freq B3LYP/6-31G(d) empiricaldispersion=gd3bj scf=xqc
 -----------------------------------------------------------

 ------------------------------
 CID_22944559_JID_6038_neutraal
 ------------------------------
 Symbolic Z-matrix:
 Charge =  0 Multiplicity = 1

 SCF Done:  E(RB3LYP) =  -777.638126329     A.U. after   16 cycles
 SCF Done:  E(RB3LYP) =  -777.644583344     A.U. after   13 cycles
 SCF Done:  E(RB3LYP) =  -777.645367925     A.U. after   12 cycles
 SCF Done:  E(RB3LYP) =  -777.644963594     A.U. after   13 cycles
 SCF Done:  E(RB3LYP) =  -777.646023422     A.U. after   12 cycles
 SCF Done:  E(RB3LYP) =  -777.646049973     A.U. after   12 cycles
 SCF Done:  E(RB3LYP) =  -777.646056399     A.U. after   13 cycles
 SCF Done:  E(RB3LYP) =  -777.646223593     A.U. after   12 cycles
 SCF Done:  E(RB3LYP) =  -777.646240646     A.U. after   10 cycles
 SCF Done:  E(RB3LYP) =  -777.646245636     A.U. after   11 cycles
 SCF Done:  E(RB3LYP) =  -777.646247644     A.U. after   10 cycles
 SCF Done:  E(RB3LYP) =  -777.646247892     A.U. after    8 cycles
 SCF Done:  E(RB3LYP) =  -777.646247934     A.U. after    8 cycles
 SCF Done:  E(RB3LYP) =  -777.646247946     A.U. after    7 cycles
 Optimization completed.
    -- Stationary point found.
 Normal termination of Gaussian 16 at Thu Dec 10 21:09:19 2020.

 --------------------------------------------------------------------
 #N Geom=AllCheck Guess=TCheck SCRF=Check GenChk RB3LYP/6-31G(d) Freq
 --------------------------------------------------------------------

 Structure from the checkpoint file:  "JID_6038.chk"
 ------------------------------
 CID_22944559_JID_6038_neutraal
 ------------------------------
 Charge =  0 Multiplicity = 1

 SCF Done:  E(RB3LYP) =  -777.646247946     A.U. after    1 cycles

  Exact polarizability: 207.869 -15.242 131.047   3.521   2.037  72.468
 Approx polarizability: 279.536 -46.706 235.352   8.163   3.258 110.117

                      1                      2                      3
                      A                      A                      A
 Frequencies --     22.3095                45.3398                68.9482
 Red. masses --      4.7341                 4.0837                 4.9108
 Frc consts  --      0.0014                 0.0049                 0.0138
 IR Inten    --      0.3737                 1.7494                 0.7812

                      4                      5                      6
                      A                      A                      A
 Frequencies --     87.0403                95.7575               128.4304
 Red. masses --      4.5469                 4.8548                 2.9283
 Frc consts  --      0.0203                 0.0262                 0.0285
 IR Inten    --      1.2136                 1.2504                 0.9387

                      7                      8                      9
                      A                      A                      A
 Frequencies --    162.2561               188.2437               220.3129
 Red. masses --      1.0865                 3.7732                 1.5805
 Frc consts  --      0.0169                 0.0788                 0.0452
 IR Inten    --      0.7603                 0.2904                 1.3571

                     10                     11                     12
                      A                      A                      A
 Frequencies --    249.9353               250.8436               284.1552
 Red. masses --      2.1965                 3.7844                 7.2368
 Frc consts  --      0.0808                 0.1403                 0.3443
 IR Inten    --      6.5801                 4.5141                 2.0067

                     13                     14                     15
                      A                      A                      A
 Frequencies --    324.7235               341.2928               385.6487
 Red. masses --      3.6177                 3.1143                 7.2247
 Frc consts  --      0.2248                 0.2137                 0.6331
 IR Inten    --      2.9577                10.2031                 5.3998

                     16                     17                     18
                      A                      A                      A
 Frequencies --    415.7852               427.5748               450.9326
 Red. masses --      3.8380                 3.8294                 6.2195
 Frc consts  --      0.3909                 0.4125                 0.7451
 IR Inten    --      4.5829                 1.0048                 1.9566

                     19                     20                     21
                      A                      A                      A
 Frequencies --    465.7427               473.3929               606.0395
 Red. masses --      2.6978                 4.3365                 5.6160
 Frc consts  --      0.3448                 0.5726                 1.2153
 IR Inten    --      0.8635                 3.7452                 1.3104

                     22                     23                     24
                      A                      A                      A
 Frequencies --    612.8910               665.0262               699.0819
 Red. masses --      5.8393                 5.5591                 6.9742
 Frc consts  --      1.2923                 1.4485                 2.0082
 IR Inten    --      1.4787                 5.7637                23.1662

                     25                     26                     27
                      A                      A                      A
 Frequencies --    735.9740               767.6031               789.3726
 Red. masses --      6.8479                 4.3369                 2.3291
 Frc consts  --      2.1854                 1.5056                 0.8551
 IR Inten    --      8.0820                14.0168                 9.8154

                     28                     29                     30
                      A                      A                      A
 Frequencies --    806.3359               835.4789               884.9268
 Red. masses --      8.8804                 2.1088                 3.3909
 Frc consts  --      3.4019                 0.8673                 1.5645
 IR Inten    --     25.7424                 1.5069                 1.3029

                     31                     32                     33
                      A                      A                      A
 Frequencies --    891.8291               900.3643               919.1471
 Red. masses --      4.5311                 3.0242                 1.8139
 Frc consts  --      2.1233                 1.4445                 0.9029
 IR Inten    --      5.0759                 3.9695                 0.1977

                     34                     35                     36
                      A                      A                      A
 Frequencies --    941.8295               988.7524              1041.5831
 Red. masses --      1.4173                 3.6383                 1.8720
 Frc consts  --      0.7407                 2.0957                 1.1966
 IR Inten    --      9.1033                32.9953                 3.1286

                     37                     38                     39
                      A                      A                      A
 Frequencies --   1063.1136              1064.2637              1095.6537
 Red. masses --      4.8926                 1.5320                 4.4846
 Frc consts  --      3.2580                 1.0224                 3.1719
 IR Inten    --    118.2249                 5.8662                27.2368

                     40                     41                     42
                      A                      A                      A
 Frequencies --   1133.6450              1169.9388              1178.3108
 Red. masses --      2.0046                 1.2600                 5.7670
 Frc consts  --      1.5178                 1.0161                 4.7176
 IR Inten    --     41.9466                 0.5904               340.3691

                     43                     44                     45
                      A                      A                      A
 Frequencies --   1208.6115              1210.8393              1238.2973
 Red. masses --      1.9328                 2.2430                 2.7242
 Frc consts  --      1.6634                 1.9376                 2.4611
 IR Inten    --     13.8953               158.0289                 2.6260

                     46                     47                     48
                      A                      A                      A
 Frequencies --   1316.6043              1341.6440              1345.4522
 Red. masses --      3.3628                 1.8560                 1.3448
 Frc consts  --      3.4345                 1.9684                 1.4343
 IR Inten    --    257.0869                 1.0483                 5.3446

                     49                     50                     51
                      A                      A                      A
 Frequencies --   1364.9954              1419.7901              1440.0053
 Red. masses --      3.0684                 1.2915                 1.4261
 Frc consts  --      3.3684                 1.5339                 1.7423
 IR Inten    --    104.5761                11.2567                33.6404

                     52                     53                     54
                      A                      A                      A
 Frequencies --   1444.2854              1458.7238              1501.1775
 Red. masses --      1.3309                 1.1024                 7.0689
 Frc consts  --      1.6357                 1.3821                 9.3856
 IR Inten    --     11.3520                22.2644               147.1304

                     55                     56                     57
                      A                      A                      A
 Frequencies --   1501.6199              1503.8028              1515.1573
 Red. masses --      1.0905                 1.0444                 1.0685
 Frc consts  --      1.4487                 1.3915                 1.4453
 IR Inten    --     16.7238                10.8819                 7.2753

                     58                     59                     60
                      A                      A                      A
 Frequencies --   1518.0173              1538.7282              1613.0320
 Red. masses --      1.0741                 1.0553                 7.2307
 Frc consts  --      1.4584                 1.4722                11.0845
 IR Inten    --      4.3396                 6.6137                56.9313

                     61                     62                     63
                      A                      A                      A
 Frequencies --   1683.1775              1730.5037              1782.3992
 Red. masses --      7.3372                10.5504                12.6878
 Frc consts  --     12.2472                18.6151                23.7490
 IR Inten    --     21.6375               421.6798                32.7947

                     64                     65                     66
                      A                      A                      A
 Frequencies --   1838.0254              3050.4678              3061.1683
 Red. masses --     12.3068                 1.0385                 1.0366
 Frc consts  --     24.4961                 5.6936                 5.7233
 IR Inten    --    485.0614                16.8932                20.0269

                     67                     68                     69
                      A                      A                      A
 Frequencies --   3074.8437              3090.9180              3101.5480
 Red. masses --      1.0612                 1.0587                 1.1005
 Frc consts  --      5.9117                 5.9594                 6.2370
 IR Inten    --      1.1819                31.7500                 7.9635

                     70                     71                     72
                      A                      A                      A
 Frequencies --   3109.3006              3125.7698              3139.8296
 Red. masses --      1.1022                 1.1024                 1.1047
 Frc consts  --      6.2783                 6.3463                 6.4167
 IR Inten    --      0.7463                25.7940                11.1357

                     73                     74                     75
                      A                      A                      A
 Frequencies --   3159.7801              3161.0137              3270.6827
 Red. masses --      1.1059                 1.1006                 1.0937
 Frc consts  --      6.5056                 6.4795                 6.8933
 IR Inten    --     23.3437                 4.8467                 1.5560

 - Thermochemistry -
 -------------------
 Temperature   298.150 Kelvin.  Pressure   1.00000 Atm.
 Atom     1 has atomic number  6 and mass  12.00000

 Molecular mass:   221.08004 amu.
 Principal axes and moments of inertia in atomic units:
                           1         2         3
     Eigenvalues --  1584.076086346.301587712.72876
           X            0.99994   0.00947  -0.00454
           Y           -0.00948   0.99995  -0.00351
           Z            0.00451   0.00356   0.99998
 This molecule is an asymmetric top.
 Rotational symmetry number  1.
 Warning -- assumption of classical behavior for rotation
           may cause significant error
 Rotational temperatures (Kelvin)      0.05468     0.01365     0.01123
 Rotational constants (GHZ):           1.13930     0.28438     0.23400
 Zero-point vibrational energy     548727.3 (Joules/Mol)
                                  131.14897 (Kcal/Mol)
 Warning -- explicit consideration of  22 degrees of freedom as
           vibrations may cause significant error
 Vibrational temperatures:     32.10    65.23    99.20   125.23   137.77
          (Kelvin)            184.78   233.45   270.84   316.98   359.60
                              360.91   408.84   467.20   491.04   554.86
                              598.22   615.18   648.79   670.10   681.11
                              871.96   881.81   956.82  1005.82  1058.90
                             1104.41  1135.73  1160.14  1202.07  1273.21
                             1283.14  1295.42  1322.45  1355.08  1422.59
                             1498.61  1529.58  1531.24  1576.40  1631.06
                             1683.28  1695.33  1738.92  1742.13  1781.63
                             1894.30  1930.33  1935.81  1963.92  2042.76
                             2071.85  2078.00  2098.78  2159.86  2160.50
                             2163.64  2179.97  2184.09  2213.89  2320.79
                             2421.72  2489.81  2564.47  2644.51  4388.94
                             4404.34  4424.01  4447.14  4462.44  4473.59
                             4497.29  4517.51  4546.22  4547.99  4705.78

 Zero-point correction=                           0.208999 (Hartree/Particle)
 Thermal correction to Energy=                    0.223701
 Thermal correction to Enthalpy=                  0.224646
 Thermal correction to Gibbs Free Energy=         0.165691
 Sum of electronic and zero-point Energies=           -777.437249
 Sum of electronic and thermal Energies=              -777.422546
 Sum of electronic and thermal Enthalpies=            -777.421602
 Sum of electronic and thermal Free Energies=         -777.480557

                     E (Thermal)             CV                S
                      KCal/Mol        Cal/Mol-Kelvin    Cal/Mol-Kelvin
 Total                  140.375             54.041            124.080
 Electronic               0.000              0.000              0.000
 Translational            0.889              2.981             42.083
 Rotational               0.889              2.981             32.716
 Vibrational            138.597             48.079             49.281
 Vibration     1          0.593              1.985              6.417
 Vibration     2          0.595              1.979              5.011
 Vibration     3          0.598              1.969              4.183
 Vibration     4          0.601              1.958              3.726
 Vibration     5          0.603              1.952              3.539
 Vibration     6          0.611              1.925              2.969
 Vibration     7          0.622              1.889              2.523
 Vibration     8          0.633              1.856              2.245
 Vibration     9          0.647              1.810              1.957
 Vibration    10          0.663              1.763              1.731
 Vibration    11          0.663              1.761              1.725
 Vibration    12          0.683              1.703              1.509
 Vibration    13          0.709              1.626              1.286
 Vibration    14          0.721              1.593              1.206
 Vibration    15          0.754              1.501              1.017
 Vibration    16          0.779              1.436              0.906
 Vibration    17          0.789              1.410              0.867
 Vibration    18          0.810              1.359              0.793
 Vibration    19          0.823              1.326              0.750
 Vibration    20          0.830              1.309              0.728
 Vibration    21          0.965              1.019              0.439
 Vibration    22          0.972              1.005              0.428

 Optimization completed.
    -- Stationary point found.
 Normal termination of Gaussian 16 at Thu Dec 10 21:16:36 2020.

 ----------------------------------------------------------------------
 # B3LYP/6-311++G(d,p) empiricaldispersion=gd3bj scf=xqc pop=npa geom=c
 heck
 ----------------------------------------------------------------------

 --------------------------------------
 CID_22944559_JID_6038_Energie_neutraal
 --------------------------------------
 Structure from the checkpoint file:  "JID_6038.chk"
 Charge =  0 Multiplicity = 1

 SCF Done:  E(RB3LYP) =  -777.860986100     A.U. after   18 cycles
 Normal termination of Gaussian 16 at Thu Dec 10 21:20:07 2020.

 ----------------------------------------------------------------------
 # B3LYP/6-311++G(d,p) empiricaldispersion=gd3bj scf=xqc pop=npa geom=c
 heck
 ----------------------------------------------------------------------

 ------------------------------------
 CID_22944559_JID_6038_Energie_kation
 ------------------------------------
 Structure from the checkpoint file:  "JID_6038.chk"
 Charge =  1 Multiplicity = 2

 SCF Done:  E(UB3LYP) =  -777.548823827     A.U. after   33 cycles
 SCF Done:  E(UB3LYP) =  -777.548823827     a.u. after    1 cycles
 Normal termination of Gaussian 16 at Thu Dec 10 21:29:34 2020.
 Gaussian 16:  ES64L-G16RevA.03 25-Dec-2016

 ----------------------------------------------------------------------
 # B3LYP/6-311++G(d,p) empiricaldispersion=gd3bj scf=xqc pop=npa geom=c
 heck
 ----------------------------------------------------------------------

 -----------------------------------
 CID_22944559_JID_6038_Energie_anion
 -----------------------------------
 Structure from the checkpoint file:  "JID_6038.chk"
 Charge = -1 Multiplicity = 2

                         Standard orientation:
 ---------------------------------------------------------------------
 Center     Atomic      Atomic             Coordinates (Angstroms)
 Number     Number       Type             X           Y           Z
 ---------------------------------------------------------------------
      1          6           0       -4.697978   -1.191696    0.905330
      2          6           0       -3.876830   -1.462944   -0.344988
      3          8           0       -2.487811   -1.118499   -0.143598
      4          6           0       -2.171848    0.197819   -0.314500
      5          8           0       -2.983856    1.046163   -0.603494
      6          6           0       -0.714412    0.418031   -0.126370
      7          6           0        0.127907   -0.654194   -0.148836
      8          7           0        1.461977   -0.435571   -0.029484
      9          6           0        1.960998    0.854502    0.083373
     10          7           0        1.250240    1.916683    0.127555
     11          6           0       -0.176468    1.793076    0.076374
     12          8           0       -0.867433    2.781985    0.213465
     13          6           0        3.459112    0.681725    0.132685
     14          6           0        3.582857   -0.823664    0.030398
     15          7           0        2.445859   -1.427977   -0.062770
     16          6           0        4.869734   -1.573520    0.033112
     17          1           0       -4.281592   -1.725873    1.765573
     18          1           0       -5.729592   -1.529566    0.754546
     19          1           0       -4.713500   -0.121222    1.125022
     20          1           0       -3.857887   -2.527381   -0.591855
     21          1           0       -4.259691   -0.897888   -1.198248
     22          1           0       -0.191158   -1.681388   -0.263892
     23          1           0        3.885784    1.076977    1.061993
     24          1           0        3.957148    1.200824   -0.694722
     25          1           0        5.507212   -1.250872   -0.799259
     26          1           0        5.427340   -1.381546    0.958111
     27          1           0        4.683749   -2.646014   -0.054831
 ---------------------------------------------------------------------

 SCF Done:  E(UB3LYP) =  -777.875557532     A.U. after   33 cycles
 SCF Done:  E(UB3LYP) =  -777.875557532     a.u. after    1 cycles

 The electronic state is 2-A.
 Alpha  occ. eigenvalues --  -19.04051 -18.96876 -18.93057 -14.26892 -14.22219
 Alpha  occ. eigenvalues --  -14.14294 -10.16157 -10.12654 -10.11814 -10.09916
 Alpha  occ. eigenvalues --  -10.09704 -10.09309 -10.07971 -10.07234 -10.06760
 Alpha  occ. eigenvalues --  -10.04773  -0.97732  -0.93158  -0.88877  -0.87750
 Alpha  occ. eigenvalues --   -0.79112  -0.74239  -0.68152  -0.65734  -0.64121
 Alpha  occ. eigenvalues --   -0.61361  -0.55395  -0.52592  -0.48355  -0.47860
 Alpha  occ. eigenvalues --   -0.44064  -0.40820  -0.39785  -0.37148  -0.36733
 Alpha  occ. eigenvalues --   -0.35576  -0.34723  -0.33846  -0.32793  -0.32245
 Alpha  occ. eigenvalues --   -0.30827  -0.30083  -0.29553  -0.29318  -0.28197
 Alpha  occ. eigenvalues --   -0.27989  -0.26765  -0.25790  -0.25240  -0.23560
 Alpha  occ. eigenvalues --   -0.19437  -0.19060  -0.18523  -0.16738  -0.14996
 Alpha  occ. eigenvalues --   -0.12806  -0.09535  -0.09351   0.04118
 Alpha virt. eigenvalues --    0.06743   0.06864   0.07309   0.09291   0.09797
 Alpha virt. eigenvalues --    0.09975   0.10211   0.11152   0.11884   0.12783
 Alpha virt. eigenvalues --    0.13074   0.13270   0.13806   0.14477   0.15006

  Beta  occ. eigenvalues --  -19.04035 -18.96741 -18.92993 -14.27005 -14.21991
  Beta  occ. eigenvalues --  -14.14001 -10.16067 -10.12655 -10.11799 -10.09811
  Beta  occ. eigenvalues --  -10.09535 -10.08879 -10.07981 -10.07229 -10.06835
  Beta  occ. eigenvalues --  -10.04703  -0.97628  -0.92905  -0.88697  -0.87588
  Beta  occ. eigenvalues --   -0.78686  -0.73851  -0.68034  -0.65604  -0.63657
  Beta  occ. eigenvalues --   -0.61231  -0.55300  -0.52277  -0.48128  -0.47622
  Beta  occ. eigenvalues --   -0.43940  -0.40634  -0.39634  -0.36607  -0.36381
  Beta  occ. eigenvalues --   -0.35420  -0.34545  -0.33635  -0.32664  -0.31962
  Beta  occ. eigenvalues --   -0.30728  -0.29984  -0.29331  -0.28972  -0.28004
  Beta  occ. eigenvalues --   -0.27719  -0.26578  -0.25607  -0.24568  -0.23503
  Beta  occ. eigenvalues --   -0.19085  -0.18252  -0.17872  -0.15339  -0.14749
  Beta  occ. eigenvalues --   -0.12427  -0.09346  -0.08720
  Beta virt. eigenvalues --    0.06787   0.06905   0.08569   0.08866   0.09338
  Beta virt. eigenvalues --    0.09825   0.09947   0.11011   0.11146   0.11817
  Beta virt. eigenvalues --    0.12920   0.13441   0.13562   0.13928   0.14312

 Mulliken charges and spin densities:
               1          2
     1  C   -0.298188  -0.056982
     2  C   -0.214153   0.021344
     3  O   -0.034216   0.002038
     4  C   -0.647748   0.045890
     5  O   -0.260710   0.044597
     6  C    0.548286   0.043894
     7  C   -0.079108   0.101524
     8  N    0.067975  -0.058510
     9  C    0.217607   0.201369
    10  N   -0.241324   0.166693
    11  C   -0.083820   0.007334
    12  O   -0.332944   0.025189
    13  C   -0.453108  -0.153114
    14  C    0.162503   0.121114
    15  N    0.028770   0.124783
    16  C   -0.705144  -0.095599
    17  H    0.114848   0.016617
    18  H    0.095406   0.014155
    19  H    0.175464   0.009932
    20  H    0.124857   0.007771
    21  H    0.162328  -0.000297
    22  H    0.232739  -0.008022
    23  H    0.010308   0.200410
    24  H    0.105967   0.094145
    25  H    0.131083   0.008903
    26  H    0.037770   0.110244
    27  H    0.134552   0.004576
 Sum of Mulliken charges =  -1.00000   1.00000

 Dipole moment (field-independent basis, Debye):
    X=             -0.0625    Y=             -7.6827    Z=             -0.5382  Tot=              7.7018
 Quadrupole moment (field-independent basis, Debye-Ang):
   XX=           -123.6760   YY=           -130.2396   ZZ=           -100.7305
   XY=             10.0635   XZ=             -4.1316   YZ=              0.0370

 Summary of Natural Population Analysis:

                                       Natural Population
                Natural  -----------------------------------------------
    Atom  No    Charge         Core      Valence    Rydberg      Total
 -----------------------------------------------------------------------
      C    1   -0.29934      0.99967     2.29577    0.00391     3.29934
      C    2   -0.01528      0.99960     2.00553    0.01015     3.01528
      O    3   -0.29633      0.99987     3.28747    0.00900     4.29633
      C    4    0.40651      0.99965     1.56969    0.02415     2.59349
      O    5   -0.28989      0.99987     3.28405    0.00597     4.28989
      C    6   -0.13644      0.99943     2.12644    0.01058     3.13644
      C    7    0.07337      0.99952     1.91678    0.01032     2.92663
      N    8   -0.14477      0.99957     2.63400    0.01119     3.64477
      C    9    0.28999      0.99961     1.69285    0.01755     2.71001
      N   10   -0.23430      0.99962     2.72339    0.01129     3.73430
      C   11    0.31841      0.99963     1.65738    0.02457     2.68159
      O   12   -0.29820      0.99987     3.29187    0.00646     4.29820
      C   13   -0.24291      0.99958     2.23554    0.00779     3.24291
      C   14    0.14476      0.99965     1.84090    0.01468     2.85524
      N   15   -0.11385      0.99964     2.60313    0.01107     3.61385
      C   16   -0.30328      0.99962     2.29911    0.00454     3.30328
      H   17    0.09690      0.00000     0.40186    0.00124     0.40310
      H   18    0.09295      0.00000     0.40564    0.00141     0.40705
      H   19    0.11058      0.00000     0.38839    0.00103     0.38942
      H   20    0.08236      0.00000     0.41656    0.00107     0.41764
      H   21    0.09316      0.00000     0.40540    0.00144     0.40684
      H   22    0.10828      0.00000     0.39075    0.00098     0.39172
      H   23    0.12301      0.00000     0.37474    0.00225     0.37699
      H   24    0.12170      0.00000     0.37723    0.00107     0.37830
      H   25    0.10221      0.00000     0.39695    0.00084     0.39779
      H   26    0.10328      0.00000     0.39492    0.00180     0.39672
      H   27    0.10712      0.00000     0.39214    0.00075     0.39288
 =======================================================================
   * Total *    0.00000     15.99441    41.80847    0.19712    58.00000

 Normal termination of Gaussian 16 at Thu Dec 10 21:39:55 2020.
