 Gaussian 16, Revision A.03,

 -----------------------------------------------------------
 # opt freq B3LYP/6-31G(d) empiricaldispersion=gd3bj scf=xqc
 -----------------------------------------------------------

 -------------------------------
 CID_123497524_JID_1440_neutraal
 -------------------------------
 Symbolic Z-matrix:
 Charge =  0 Multiplicity = 1

 SCF Done:  E(RB3LYP) =  -500.436079174     A.U. after   13 cycles
 SCF Done:  E(RB3LYP) =  -500.440320894     A.U. after   12 cycles
 SCF Done:  E(RB3LYP) =  -500.440578985     A.U. after   12 cycles
 SCF Done:  E(RB3LYP) =  -500.440491356     A.U. after   12 cycles
 SCF Done:  E(RB3LYP) =  -500.440851294     A.U. after   11 cycles
 SCF Done:  E(RB3LYP) =  -500.441069129     A.U. after   11 cycles
 SCF Done:  E(RB3LYP) =  -500.441140918     A.U. after   10 cycles
 SCF Done:  E(RB3LYP) =  -500.441231016     A.U. after   10 cycles
 SCF Done:  E(RB3LYP) =  -500.441272228     A.U. after   10 cycles
 SCF Done:  E(RB3LYP) =  -500.441311484     A.U. after   10 cycles
 SCF Done:  E(RB3LYP) =  -500.441318815     A.U. after    9 cycles
 SCF Done:  E(RB3LYP) =  -500.441319865     A.U. after    8 cycles
 SCF Done:  E(RB3LYP) =  -500.441320136     A.U. after    7 cycles
 SCF Done:  E(RB3LYP) =  -500.441320192     A.U. after    6 cycles
 Optimization completed.
    -- Stationary point found.
 Normal termination of Gaussian 16 at Tue Dec  8 20:04:16 2020.

 --------------------------------------------------------------------
 #N Geom=AllCheck Guess=TCheck SCRF=Check GenChk RB3LYP/6-31G(d) Freq
 --------------------------------------------------------------------

 Structure from the checkpoint file:  "JID_1440.chk"
 -------------------------------
 CID_123497524_JID_1440_neutraal
 -------------------------------
 Charge =  0 Multiplicity = 1

 SCF Done:  E(RB3LYP) =  -500.441320192     A.U. after    1 cycles

  Exact polarizability: 118.691   2.221  95.466   3.927  -0.437  88.416
 Approx polarizability: 142.595  -1.392 132.198  11.168  -4.345 138.711

                      1                      2                      3
                      A                      A                      A
 Frequencies --     35.4242                44.1840                68.2045
 Red. masses --      4.0919                 2.8323                 2.7315
 Frc consts  --      0.0030                 0.0033                 0.0075
 IR Inten    --      1.2375                 0.8960                 3.2202

                      4                      5                      6
                      A                      A                      A
 Frequencies --     89.7124               111.4408               123.0305
 Red. masses --      2.5674                 1.5879                 1.5339
 Frc consts  --      0.0122                 0.0116                 0.0137
 IR Inten    --      2.1930                 1.7926                 0.1517

                      7                      8                      9
                      A                      A                      A
 Frequencies --    147.7070               183.6367               208.4497
 Red. masses --      2.4001                 2.4649                 1.7761
 Frc consts  --      0.0309                 0.0490                 0.0455
 IR Inten    --      0.5024                 1.8691                 0.5081

                     10                     11                     12
                      A                      A                      A
 Frequencies --    219.8110               233.7218               293.0936
 Red. masses --      2.2049                 1.4989                 2.1271
 Frc consts  --      0.0628                 0.0482                 0.1077
 IR Inten    --      2.8069                 0.8977                 3.4401

                     13                     14                     15
                      A                      A                      A
 Frequencies --    301.9976               321.6151               384.3475
 Red. masses --      1.9305                 1.8045                 2.7627
 Frc consts  --      0.1037                 0.1100                 0.2405
 IR Inten    --      5.6894                 6.6811                 6.4782

                     16                     17                     18
                      A                      A                      A
 Frequencies --    409.3678               436.2201               549.9483
 Red. masses --      3.0558                 2.8837                 2.9154
 Frc consts  --      0.3017                 0.3233                 0.5195
 IR Inten    --      5.1544                 1.0721                 1.3004

                     19                     20                     21
                      A                      A                      A
 Frequencies --    611.1042               631.4988               703.9218
 Red. masses --      3.0631                 2.6622                 1.4535
 Frc consts  --      0.6740                 0.6255                 0.4243
 IR Inten    --      2.2645                 7.2975                99.1575

                     22                     23                     24
                      A                      A                      A
 Frequencies --    752.7079               782.9001               834.5811
 Red. masses --      1.9377                 1.2037                 1.5420
 Frc consts  --      0.6468                 0.4347                 0.6328
 IR Inten    --     31.0230                22.2889                88.5687

                     25                     26                     27
                      A                      A                      A
 Frequencies --    890.0730               920.7627               947.0939
 Red. masses --      2.3175                 1.3672                 1.6754
 Frc consts  --      1.0817                 0.6829                 0.8854
 IR Inten    --     10.7112                 3.1828                 7.2836

                     28                     29                     30
                      A                      A                      A
 Frequencies --    964.7926               982.1035              1014.2616
 Red. masses --      2.1677                 2.7437                 1.7430
 Frc consts  --      1.1888                 1.5592                 1.0564
 IR Inten    --      8.1342                 5.3520                13.7662

                     31                     32                     33
                      A                      A                      A
 Frequencies --   1032.7222              1071.9323              1079.8757
 Red. masses --      1.6002                 2.0681                 2.3139
 Frc consts  --      1.0055                 1.4001                 1.5898
 IR Inten    --      9.8874                 2.3504                 4.8667

                     34                     35                     36
                      A                      A                      A
 Frequencies --   1141.0979              1154.9872              1167.2789
 Red. masses --      2.2533                 2.0298                 1.9989
 Frc consts  --      1.7287                 1.5954                 1.6047
 IR Inten    --     15.9722                 8.6211                25.2180

                     37                     38                     39
                      A                      A                      A
 Frequencies --   1175.9957              1179.5219              1198.2386
 Red. masses --      1.8796                 2.2391                 2.1776
 Frc consts  --      1.5316                 1.8354                 1.8421
 IR Inten    --     25.8420                24.5110                48.6387

                     40                     41                     42
                      A                      A                      A
 Frequencies --   1232.3421              1247.7752              1300.4549
 Red. masses --      2.1032                 1.3877                 1.2505
 Frc consts  --      1.8819                 1.2730                 1.2460
 IR Inten    --     26.1782                13.6970                 9.1779

                     43                     44                     45
                      A                      A                      A
 Frequencies --   1330.2344              1342.5187              1372.9211
 Red. masses --      1.3108                 1.1954                 1.2386
 Frc consts  --      1.3666                 1.2694                 1.3755
 IR Inten    --      9.7438                 8.3964                 2.5966

                     46                     47                     48
                      A                      A                      A
 Frequencies --   1390.8207              1405.8289              1413.7491
 Red. masses --      1.3529                 1.2706                 1.4222
 Frc consts  --      1.5419                 1.4795                 1.6747
 IR Inten    --      5.8518                15.2675                28.1659

                     49                     50                     51
                      A                      A                      A
 Frequencies --   1422.2775              1444.2562              1481.4165
 Red. masses --      1.3720                 1.2670                 1.1710
 Frc consts  --      1.6352                 1.5571                 1.5141
 IR Inten    --      1.1619                 8.0524                 3.0705

                     52                     53                     54
                      A                      A                      A
 Frequencies --   1491.3210              1499.5397              1504.7990
 Red. masses --      1.0562                 1.0528                 1.0963
 Frc consts  --      1.3841                 1.3948                 1.4627
 IR Inten    --     11.4983                 8.6003                 1.4104

                     55                     56                     57
                      A                      A                      A
 Frequencies --   1509.1280              1514.2177              1521.7618
 Red. masses --      1.0904                 1.1786                 1.0540
 Frc consts  --      1.4632                 1.5921                 1.4381
 IR Inten    --      1.9074                22.2887                11.5173

                     58                     59                     60
                      A                      A                      A
 Frequencies --   1526.9704              1531.0821              1543.4242
 Red. masses --      1.1661                 1.0781                 1.0838
 Frc consts  --      1.6019                 1.4891                 1.5212
 IR Inten    --      7.1747                14.5931                 9.8497

                     61                     62                     63
                      A                      A                      A
 Frequencies --   1547.5244              1551.2573              1803.8196
 Red. masses --      1.0680                 1.0691                 9.9422
 Frc consts  --      1.5070                 1.5158                19.0599
 IR Inten    --      4.1277                10.1350               118.8271

                     64                     65                     66
                      A                      A                      A
 Frequencies --   2921.7027              2980.1661              3039.9623
 Red. masses --      1.0734                 1.0560                 1.0387
 Frc consts  --      5.3985                 5.5256                 5.6558
 IR Inten    --     72.8652                71.1933                21.1818

                     67                     68                     69
                      A                      A                      A
 Frequencies --   3045.5262              3049.3282              3050.8281
 Red. masses --      1.0642                 1.0550                 1.0480
 Frc consts  --      5.8155                 5.7797                 5.7469
 IR Inten    --     19.5306                14.4245                 5.9012

                     70                     71                     72
                      A                      A                      A
 Frequencies --   3062.2648              3065.6299              3077.9687
 Red. masses --      1.0827                 1.0808                 1.0786
 Frc consts  --      5.9818                 5.9847                 6.0208
 IR Inten    --     47.6373                30.5534                44.0441

                     73                     74                     75
                      A                      A                      A
 Frequencies --   3083.7427              3105.5245              3108.2598
 Red. masses --      1.1004                 1.1047                 1.1026
 Frc consts  --      6.1653                 6.2770                 6.2765
 IR Inten    --      3.3567                20.9613                65.2205

                     76                     77                     78
                      A                      A                      A
 Frequencies --   3112.5115              3115.8981              3122.7911
 Red. masses --      1.0959                 1.1005                 1.1020
 Frc consts  --      6.2551                 6.2950                 6.3319
 IR Inten    --      8.2877                46.4301                34.3921

                     79                     80                     81
                      A                      A                      A
 Frequencies --   3164.6186              3478.4125              3525.0195
 Red. masses --      1.1035                 1.0726                 1.0735
 Frc consts  --      6.5111                 7.6462                 7.8588
 IR Inten    --     11.4467                 2.1045                 0.4471

 - Thermochemistry -
 -------------------
 Temperature   298.150 Kelvin.  Pressure   1.00000 Atm.
 Atom     1 has atomic number  6 and mass  12.00000

 Molecular mass:   158.14191 amu.
 Principal axes and moments of inertia in atomic units:
                           1         2         3
     Eigenvalues --  1016.917233254.280593706.63755
           X            0.99984   0.01682  -0.00646
           Y           -0.01664   0.99948   0.02761
           Z            0.00692  -0.02749   0.99960
 This molecule is an asymmetric top.
 Rotational symmetry number  1.
 Warning -- assumption of classical behavior for rotation
           may cause significant error
 Rotational temperatures (Kelvin)      0.08517     0.02662     0.02337
 Rotational constants (GHZ):           1.77472     0.55457     0.48689
 Zero-point vibrational energy     690478.3 (Joules/Mol)
                                  165.02828 (Kcal/Mol)
 Warning -- explicit consideration of  19 degrees of freedom as
           vibrations may cause significant error
 Vibrational temperatures:     50.97    63.57    98.13   129.08   160.34
          (Kelvin)            177.01   212.52   264.21   299.91   316.26
                              336.27   421.70   434.51   462.73   552.99
                              588.99   627.62   791.25   879.24   908.59
                             1012.79  1082.98  1126.42  1200.78  1280.62
                             1324.77  1362.66  1388.12  1413.03  1459.30
                             1485.86  1542.27  1553.70  1641.79  1661.77
                             1679.45  1692.00  1697.07  1724.00  1773.07
                             1795.27  1871.06  1913.91  1931.59  1975.33
                             2001.08  2022.67  2034.07  2046.34  2077.96
                             2131.43  2145.68  2157.50  2165.07  2171.30
                             2178.62  2189.48  2196.97  2202.89  2220.64
                             2226.54  2231.91  2595.29  4203.68  4287.79
                             4373.83  4381.83  4387.30  4389.46  4405.92
                             4410.76  4428.51  4436.82  4468.16  4472.09
                             4478.21  4483.08  4493.00  4553.18  5004.66
                             5071.72

 Zero-point correction=                           0.262989 (Hartree/Particle)
 Thermal correction to Energy=                    0.276925
 Thermal correction to Enthalpy=                  0.277870
 Thermal correction to Gibbs Free Energy=         0.221609
 Sum of electronic and zero-point Energies=           -500.178331
 Sum of electronic and thermal Energies=              -500.164395
 Sum of electronic and thermal Enthalpies=            -500.163451
 Sum of electronic and thermal Free Energies=         -500.219711

                     E (Thermal)             CV                S
                      KCal/Mol        Cal/Mol-Kelvin    Cal/Mol-Kelvin
 Total                  173.773             49.354            118.409
 Electronic               0.000              0.000              0.000
 Translational            0.889              2.981             41.084
 Rotational               0.889              2.981             30.884
 Vibrational            171.996             43.393             46.441
 Vibration     1          0.594              1.982              5.500
 Vibration     2          0.595              1.980              5.062
 Vibration     3          0.598              1.969              4.205
 Vibration     4          0.602              1.956              3.666
 Vibration     5          0.607              1.940              3.244
 Vibration     6          0.610              1.930              3.052
 Vibration     7          0.617              1.905              2.702
 Vibration     8          0.631              1.862              2.291
 Vibration     9          0.642              1.828              2.057
 Vibration    10          0.647              1.811              1.961
 Vibration    11          0.654              1.789              1.850
 Vibration    12          0.688              1.687              1.456
 Vibration    13          0.694              1.670              1.406
 Vibration    14          0.707              1.632              1.302
 Vibration    15          0.753              1.504              1.022
 Vibration    16          0.774              1.450              0.929
 Vibration    17          0.797              1.391              0.839
 Vibration    18          0.905              1.140              0.544
 Vibration    19          0.970              1.008              0.431

 Optimization completed.
    -- Stationary point found.
 Normal termination of Gaussian 16 at Tue Dec  8 20:10:14 2020.

 ----------------------------------------------------------------------
 # B3LYP/6-311++G(d,p) empiricaldispersion=gd3bj scf=xqc pop=npa geom=c
 heck
 ----------------------------------------------------------------------

 ---------------------------------------
 CID_123497524_JID_1440_Energie_neutraal
 ---------------------------------------
 Structure from the checkpoint file:  "JID_1440.chk"
 Charge =  0 Multiplicity = 1

 SCF Done:  E(RB3LYP) =  -500.595153805     A.U. after   14 cycles
 Normal termination of Gaussian 16 at Tue Dec  8 20:15:21 2020.

 ----------------------------------------------------------------------
 # B3LYP/6-311++G(d,p) empiricaldispersion=gd3bj scf=xqc pop=npa geom=c
 heck
 ----------------------------------------------------------------------

 -------------------------------------
 CID_123497524_JID_1440_Energie_kation
 -------------------------------------
 Structure from the checkpoint file:  "JID_1440.chk"
 Charge =  1 Multiplicity = 2

 SCF Done:  E(UB3LYP) =  -500.299706618     A.U. after   21 cycles
 Normal termination of Gaussian 16 at Tue Dec  8 20:32:41 2020.
 Gaussian 16:  ES64L-G16RevA.03 25-Dec-2016

 ----------------------------------------------------------------------
 # B3LYP/6-311++G(d,p) empiricaldispersion=gd3bj scf=xqc pop=npa geom=c
 heck
 ----------------------------------------------------------------------

 ------------------------------------
 CID_123497524_JID_1440_Energie_anion
 ------------------------------------
 Structure from the checkpoint file:  "JID_1440.chk"
 Charge = -1 Multiplicity = 2

                         Standard orientation:
 ---------------------------------------------------------------------
 Center     Atomic      Atomic             Coordinates (Angstroms)
 Number     Number       Type             X           Y           Z
 ---------------------------------------------------------------------
      1          6           0        3.731350    0.836391    0.120428
      2          6           0        3.421661   -0.649434    0.331290
      3          6           0        1.925503   -0.955369    0.430262
      4          7           0        1.237626   -0.682373   -0.826429
      5          6           0       -0.155849   -1.087536   -0.882217
      6          6           0       -1.162978   -0.421469    0.102561
      7          6           0       -1.235214    1.087121   -0.184708
      8          8           0       -1.967275    1.496970   -1.069231
      9          6           0       -0.374139    2.020651    0.638435
     10          7           0       -2.452077   -1.080860   -0.063500
     11          6           0       -3.427434   -0.713822    0.962063
     12          1           0        3.350739    1.199902   -0.841390
     13          1           0        4.811088    1.019729    0.126803
     14          1           0        3.286298    1.449906    0.914616
     15          1           0        3.844937   -1.237824   -0.491436
     16          1           0        3.904216   -0.990860    1.256103
     17          1           0        1.783730   -2.021568    0.648768
     18          1           0        1.508215   -0.404703    1.296576
     19          1           0        1.347009    0.290323   -1.098956
     20          1           0       -0.524350   -0.909624   -1.900309
     21          1           0       -0.216613   -2.165843   -0.699351
     22          1           0       -0.820565   -0.586812    1.131359
     23          1           0       -0.698336    1.987484    1.686745
     24          1           0        0.673090    1.697919    0.625863
     25          1           0       -0.456014    3.042607    0.262568
     26          1           0       -2.816337   -0.789019   -0.970716
     27          1           0       -3.629589    0.368776    1.035239
     28          1           0       -4.374350   -1.221494    0.753361
     29          1           0       -3.071212   -1.061235    1.938827
 ---------------------------------------------------------------------

 SCF Done:  E(UB3LYP) =  -500.582984646     A.U. after   33 cycles
 SCF Done:  E(UB3LYP) =  -500.582984646     a.u. after    1 cycles

 The electronic state is 2-A.
 Alpha  occ. eigenvalues --  -18.99737 -14.19742 -14.19576 -10.13605 -10.09326
 Alpha  occ. eigenvalues --  -10.09274 -10.08852 -10.08396 -10.06554 -10.06175
 Alpha  occ. eigenvalues --  -10.06088  -0.93168  -0.81464  -0.79652  -0.67975
 Alpha  occ. eigenvalues --   -0.64856  -0.61969  -0.57901  -0.54348  -0.51900
 Alpha  occ. eigenvalues --   -0.48340  -0.43282  -0.40366  -0.37761  -0.37288
 Alpha  occ. eigenvalues --   -0.36143  -0.34136  -0.33852  -0.32679  -0.31333
 Alpha  occ. eigenvalues --   -0.31216  -0.30489  -0.29649  -0.29236  -0.27203
 Alpha  occ. eigenvalues --   -0.26366  -0.25707  -0.24841  -0.23948  -0.23484
 Alpha  occ. eigenvalues --   -0.23343  -0.15426  -0.13198  -0.11710   0.04659
 Alpha virt. eigenvalues --    0.06706   0.07591   0.07965   0.08336   0.09141
 Alpha virt. eigenvalues --    0.10014   0.10210   0.11070   0.11153   0.11740
 Alpha virt. eigenvalues --    0.12243   0.12530   0.13636   0.14034   0.14381

  Beta  occ. eigenvalues --  -18.99608 -14.19726 -14.19558 -10.13438 -10.09317
  Beta  occ. eigenvalues --  -10.09278 -10.08831 -10.08374 -10.06536 -10.06154
  Beta  occ. eigenvalues --  -10.06056  -0.92904  -0.81430  -0.79616  -0.67929
  Beta  occ. eigenvalues --   -0.64699  -0.61900  -0.57846  -0.54292  -0.51804
  Beta  occ. eigenvalues --   -0.48256  -0.43093  -0.40279  -0.37720  -0.37171
  Beta  occ. eigenvalues --   -0.36017  -0.34084  -0.33661  -0.32577  -0.31226
  Beta  occ. eigenvalues --   -0.31121  -0.30451  -0.29581  -0.29201  -0.27134
  Beta  occ. eigenvalues --   -0.26308  -0.25654  -0.24493  -0.23880  -0.23402
  Beta  occ. eigenvalues --   -0.23146  -0.15329  -0.13149  -0.11642
  Beta virt. eigenvalues --    0.07098   0.07658   0.08304   0.08768   0.08968
  Beta virt. eigenvalues --    0.09531   0.10327   0.10565   0.11412   0.11594
  Beta virt. eigenvalues --    0.12108   0.12527   0.12745   0.14060   0.14315

 Mulliken charges and spin densities:
               1          2
     1  C    0.491733  -0.997259
     2  C   -0.327187  -0.062236
     3  C    0.386188  -0.578020
     4  N   -0.091348   0.073101
     5  C    0.009856  -0.570756
     6  C   -0.322547  -0.040063
     7  C   -0.964040   1.186833
     8  O   -0.284355   0.031644
     9  C    0.675224  -1.199646
    10  N   -0.102730   0.096317
    11  C    0.399396  -0.741225
    12  H   -0.024581   0.149638
    13  H   -0.557050   0.713260
    14  H   -0.226175   0.371758
    15  H    0.128210   0.015997
    16  H   -0.224776   0.364565
    17  H   -0.191323   0.346420
    18  H   -0.277330   0.395577
    19  H    0.201800   0.006670
    20  H    0.175453   0.000281
    21  H    0.095735   0.091894
    22  H    0.195837   0.019551
    23  H   -0.736313   0.915736
    24  H    0.805362  -0.619916
    25  H   -0.085785   0.232759
    26  H    0.228675   0.019703
    27  H   -0.001481   0.141147
    28  H    0.004211   0.119726
    29  H   -0.380660   0.516543
 Sum of Mulliken charges =  -1.00000   1.00000

 Dipole moment (field-independent basis, Debye):
    X=             -1.7065    Y=             -1.9479    Z=             -4.5239  Tot=              5.2127
 Quadrupole moment (field-independent basis, Debye-Ang):
   XX=           -139.0543   YY=           -106.5720   ZZ=           -109.5638
   XY=             -0.1124   XZ=             -1.3605   YZ=             -1.7630

 Summary of Natural Population Analysis:

                                       Natural Population
                Natural  -----------------------------------------------
    Atom  No    Charge         Core      Valence    Rydberg      Total
 -----------------------------------------------------------------------
      C    1   -0.28932      0.99967     2.28419    0.00546     3.28932
      C    2   -0.19299      0.99964     2.18417    0.00918     3.19299
      C    3   -0.08828      0.99962     2.07701    0.01165     3.08828
      N    4   -0.34047      0.99974     2.83060    0.01013     3.84047
      C    5   -0.07980      0.99960     2.06847    0.01173     3.07980
      C    6   -0.06389      0.99955     2.05018    0.01417     3.06389
      C    7    0.30568      0.99966     1.67246    0.02221     2.69432
      O    8   -0.29200      0.99987     3.28511    0.00702     4.29200
      C    9   -0.33650      0.99961     2.33006    0.00684     3.33650
      N   10   -0.33703      0.99975     2.82535    0.01194     3.83703
      C   11   -0.17945      0.99966     2.17174    0.00805     3.17945
      H   12    0.09271      0.00000     0.40626    0.00103     0.40729
      H   13    0.10129      0.00000     0.39743    0.00128     0.39871
      H   14    0.09812      0.00000     0.40047    0.00141     0.40188
      H   15    0.09462      0.00000     0.40405    0.00133     0.40538
      H   16    0.09758      0.00000     0.40118    0.00124     0.40242
      H   17    0.09293      0.00000     0.40568    0.00139     0.40707
      H   18    0.07978      0.00000     0.41821    0.00201     0.42022
      H   19    0.17259      0.00000     0.32424    0.00317     0.32741
      H   20    0.09348      0.00000     0.40537    0.00115     0.40652
      H   21    0.09728      0.00000     0.40110    0.00162     0.40272
      H   22    0.09967      0.00000     0.39740    0.00293     0.40033
      H   23    0.11809      0.00000     0.37734    0.00457     0.38191
      H   24    0.10669      0.00000     0.39154    0.00177     0.39331
      H   25    0.10646      0.00000     0.39245    0.00108     0.39354
      H   26    0.17569      0.00000     0.32138    0.00294     0.32431
      H   27    0.08311      0.00000     0.41553    0.00136     0.41689
      H   28    0.09073      0.00000     0.40847    0.00080     0.40927
      H   29    0.09324      0.00000     0.40539    0.00138     0.40676
 =======================================================================
   * Total *    0.00000     10.99637    32.85280    0.15083    44.00000

 Normal termination of Gaussian 16 at Tue Dec  8 21:16:53 2020.
