 Gaussian 16, Revision A.03,

 -----------------------------------------------------------
 # opt freq B3LYP/6-31G(d) empiricaldispersion=gd3bj scf=xqc
 -----------------------------------------------------------

 ------------------------------
 CID_116230045_JID_417_neutraal
 ------------------------------
 Symbolic Z-matrix:
 Charge =  0 Multiplicity = 1

 SCF Done:  E(RB3LYP) =  -839.851467023     A.U. after   14 cycles
 SCF Done:  E(RB3LYP) =  -839.845142971     A.U. after   15 cycles
 SCF Done:  E(RB3LYP) =  -839.854991109     A.U. after   11 cycles
 SCF Done:  E(RB3LYP) =  -839.841320032     A.U. after   14 cycles
 SCF Done:  E(RB3LYP) =  -839.855189068     A.U. after   13 cycles
 SCF Done:  E(RB3LYP) =  -839.855893487     A.U. after   12 cycles
 SCF Done:  E(RB3LYP) =  -839.856020993     A.U. after   10 cycles
 SCF Done:  E(RB3LYP) =  -839.856088270     A.U. after   11 cycles
 SCF Done:  E(RB3LYP) =  -839.856139447     A.U. after   10 cycles
 SCF Done:  E(RB3LYP) =  -839.856311233     A.U. after   12 cycles
 SCF Done:  E(RB3LYP) =  -839.858773886     A.U. after   12 cycles
 SCF Done:  E(RB3LYP) =  -839.858818620     A.U. after   10 cycles
 SCF Done:  E(RB3LYP) =  -839.858824078     A.U. after    9 cycles
 SCF Done:  E(RB3LYP) =  -839.858825086     A.U. after    9 cycles
 SCF Done:  E(RB3LYP) =  -839.858825250     A.U. after    7 cycles
 SCF Done:  E(RB3LYP) =  -839.858825263     A.U. after    7 cycles
 Optimization completed.
    -- Stationary point found.
 Normal termination of Gaussian 16 at Tue Dec  8 10:39:02 2020.

 --------------------------------------------------------------------
 #N Geom=AllCheck Guess=TCheck SCRF=Check GenChk RB3LYP/6-31G(d) Freq
 --------------------------------------------------------------------

 Structure from the checkpoint file:  "JID_417.chk"
 ------------------------------
 CID_116230045_JID_417_neutraal
 ------------------------------
 Charge =  0 Multiplicity = 1

 SCF Done:  E(RB3LYP) =  -839.858825263     A.U. after    1 cycles

  Exact polarizability:  86.629  -2.236 104.682   2.753  -1.517  84.512
 Approx polarizability: 119.995  -9.454 159.016   5.362  -0.977 139.947

                      1                      2                      3
                      A                      A                      A
 Frequencies --     55.9641               106.9969               121.4863
 Red. masses --      4.4398                 7.2135                 4.3040
 Frc consts  --      0.0082                 0.0487                 0.0374
 IR Inten    --      2.1119                 2.0933                12.6520

                      4                      5                      6
                      A                      A                      A
 Frequencies --    183.3100               191.1409               218.6630
 Red. masses --      2.7511                 3.9296                 1.2421
 Frc consts  --      0.0545                 0.0846                 0.0350
 IR Inten    --      6.4837                 0.3616                 0.3192

                      7                      8                      9
                      A                      A                      A
 Frequencies --    231.0491               259.9585               266.7816
 Red. masses --      2.1495                 2.2811                 3.7309
 Frc consts  --      0.0676                 0.0908                 0.1564
 IR Inten    --      4.1990                 0.6266                10.7538

                     10                     11                     12
                      A                      A                      A
 Frequencies --    293.2046               308.2938               331.6010
 Red. masses --      1.2706                 2.5409                 3.4534
 Frc consts  --      0.0644                 0.1423                 0.2237
 IR Inten    --      0.1920                 0.4342                10.4020

                     13                     14                     15
                      A                      A                      A
 Frequencies --    348.1620               381.6215               449.4134
 Red. masses --      3.2570                 2.5213                 5.1873
 Frc consts  --      0.2326                 0.2163                 0.6173
 IR Inten    --      4.5001                 0.1578                27.0547

                     16                     17                     18
                      A                      A                      A
 Frequencies --    522.5724               597.8927               620.4445
 Red. masses --      3.8244                 3.6219                 2.5005
 Frc consts  --      0.6153                 0.7628                 0.5671
 IR Inten    --      3.1143                10.6807                 8.4735

                     19                     20                     21
                      A                      A                      A
 Frequencies --    678.1227               824.1644               865.0593
 Red. masses --      5.1664                 2.7420                 1.2805
 Frc consts  --      1.3998                 1.0973                 0.5646
 IR Inten    --     12.4227                 3.0183               184.3833

                     22                     23                     24
                      A                      A                      A
 Frequencies --    879.5234               969.6942               973.7378
 Red. masses --      1.6817                 1.6501                 1.7078
 Frc consts  --      0.7665                 0.9142                 0.9541
 IR Inten    --     26.2324                18.9142                18.4021

                     25                     26                     27
                      A                      A                      A
 Frequencies --    985.4662              1012.6491              1021.6449
 Red. masses --      1.3891                 1.6581                 1.7812
 Frc consts  --      0.7948                 1.0018                 1.0954
 IR Inten    --      2.9951                 9.8617                28.5063

                     28                     29                     30
                      A                      A                      A
 Frequencies --   1042.6308              1055.4032              1120.8736
 Red. masses --      2.0268                 1.9418                 2.2844
 Frc consts  --      1.2982                 1.2743                 1.6910
 IR Inten    --     29.6517                 9.7950                15.1412

                     31                     32                     33
                      A                      A                      A
 Frequencies --   1147.7388              1172.1721              1254.4883
 Red. masses --      1.7671                 2.8430                 1.3914
 Frc consts  --      1.3715                 2.3015                 1.2902
 IR Inten    --     11.0326                16.1540                39.4179

                     34                     35                     36
                      A                      A                      A
 Frequencies --   1269.9183              1328.1975              1341.3797
 Red. masses --      1.2737                 1.3037                 1.8649
 Frc consts  --      1.2103                 1.3550                 1.9770
 IR Inten    --      5.0698                15.7016                58.7333

                     37                     38                     39
                      A                      A                      A
 Frequencies --   1358.2692              1384.6680              1404.9354
 Red. masses --      1.3039                 1.1904                 1.2816
 Frc consts  --      1.4173                 1.3448                 1.4904
 IR Inten    --      2.6722                 8.5399                 1.1762

                     40                     41                     42
                      A                      A                      A
 Frequencies --   1420.9299              1444.0094              1444.2609
 Red. masses --      1.2808                 1.2645                 1.2401
 Frc consts  --      1.5236                 1.5534                 1.5240
 IR Inten    --      2.9015                 6.2193                 7.0369

                     43                     44                     45
                      A                      A                      A
 Frequencies --   1480.1312              1499.7629              1501.3952
 Red. masses --      1.0505                 1.0960                 1.0558
 Frc consts  --      1.3559                 1.4525                 1.4022
 IR Inten    --      6.2661                15.6905                 7.1246

                     46                     47                     48
                      A                      A                      A
 Frequencies --   1528.1666              1533.0399              1542.7923
 Red. masses --      1.1147                 1.0728                 1.2723
 Frc consts  --      1.5338                 1.4856                 1.7842
 IR Inten    --      4.0575                10.9919                10.6616

                     49                     50                     51
                      A                      A                      A
 Frequencies --   1550.2650              1803.1477              2932.2803
 Red. masses --      1.1895                 6.4933                 1.0832
 Frc consts  --      1.6843                12.4388                 5.4877
 IR Inten    --     20.8956               402.7409               100.1278

                     52                     53                     54
                      A                      A                      A
 Frequencies --   3031.4593              3052.2950              3055.1889
 Red. masses --      1.0664                 1.0716                 1.0431
 Frc consts  --      5.7742                 5.8822                 5.7364
 IR Inten    --     48.4585                25.1814                16.1343

                     55                     56                     57
                      A                      A                      A
 Frequencies --   3068.0714              3075.5416              3079.1933
 Red. masses --      1.0786                 1.0308                 1.0967
 Frc consts  --      5.9820                 5.7448                 6.1264
 IR Inten    --     34.2970                13.2779                21.8889

                     58                     59                     60
                      A                      A                      A
 Frequencies --   3114.4829              3116.0978              3157.3729
 Red. masses --      1.0965                 1.0977                 1.1003
 Frc consts  --      6.2665                 6.2800                 6.4626
 IR Inten    --      9.0472                20.3031                16.2701

                     61                     62                     63
                      A                      A                      A
 Frequencies --   3167.0770              3186.4880              3363.2114
 Red. masses --      1.1045                 1.1081                 1.0803
 Frc consts  --      6.5273                 6.6293                 7.1995
 IR Inten    --      4.3724                 6.4583               243.6725

 - Thermochemistry -
 -------------------
 Temperature   298.150 Kelvin.  Pressure   1.00000 Atm.
 Atom     1 has atomic number  6 and mass  12.00000

 Molecular mass:   163.06670 amu.
 Principal axes and moments of inertia in atomic units:
                           1         2         3
     Eigenvalues --  1376.236351843.694342223.25648
           X            0.99925   0.02942  -0.02530
           Y           -0.03012   0.99916  -0.02772
           Z            0.02446   0.02846   0.99930
 This molecule is an asymmetric top.
 Rotational symmetry number  1.
 Warning -- assumption of classical behavior for rotation
           may cause significant error
 Rotational temperatures (Kelvin)      0.06294     0.04698     0.03896
 Rotational constants (GHZ):           1.31136     0.97887     0.81176
 Zero-point vibrational energy     512755.1 (Joules/Mol)
                                  122.55140 (Kcal/Mol)
 Warning -- explicit consideration of  18 degrees of freedom as
           vibrations may cause significant error
 Vibrational temperatures:     80.52   153.94   174.79   263.74   275.01
          (Kelvin)            314.61   332.43   374.02   383.84   421.86
                              443.57   477.10   500.93   549.07   646.61
                              751.87   860.23   892.68   975.67  1185.79
                             1244.63  1265.44  1395.17  1400.99  1417.87
                             1456.98  1469.92  1500.11  1518.49  1612.69
                             1651.34  1686.49  1804.93  1827.13  1910.98
                             1929.95  1954.25  1992.23  2021.39  2044.40
                             2077.61  2077.97  2129.58  2157.82  2160.17
                             2198.69  2205.70  2219.73  2230.49  2594.33
                             4218.90  4361.59  4391.57  4395.74  4414.27
                             4425.02  4430.27  4481.05  4483.37  4542.76
                             4556.72  4584.65  4838.91

 Zero-point correction=                           0.195298 (Hartree/Particle)
 Thermal correction to Energy=                    0.206955
 Thermal correction to Enthalpy=                  0.207900
 Thermal correction to Gibbs Free Energy=         0.158300
 Sum of electronic and zero-point Energies=           -839.663527
 Sum of electronic and thermal Energies=              -839.651870
 Sum of electronic and thermal Enthalpies=            -839.650926
 Sum of electronic and thermal Free Energies=         -839.700525

                     E (Thermal)             CV                S
                      KCal/Mol        Cal/Mol-Kelvin    Cal/Mol-Kelvin
 Total                  129.867             42.852            104.391
 Electronic               0.000              0.000              0.000
 Translational            0.889              2.981             41.176
 Rotational               0.889              2.981             30.113
 Vibrational            128.089             36.891             33.103
 Vibration     1          0.596              1.975              4.595
 Vibration     2          0.606              1.944              3.323
 Vibration     3          0.609              1.931              3.077
 Vibration     4          0.631              1.863              2.294
 Vibration     5          0.634              1.852              2.217
 Vibration     6          0.646              1.813              1.970
 Vibration     7          0.653              1.794              1.871
 Vibration     8          0.668              1.746              1.662
 Vibration     9          0.672              1.734              1.617
 Vibration    10          0.688              1.686              1.455
 Vibration    11          0.698              1.658              1.371
 Vibration    12          0.714              1.612              1.252
 Vibration    13          0.726              1.579              1.174
 Vibration    14          0.751              1.509              1.033
 Vibration    15          0.808              1.362              0.798
 Vibration    16          0.878              1.200              0.604
 Vibration    17          0.956              1.036              0.453
 Vibration    18          0.980              0.989              0.416

 Optimization completed.
    -- Stationary point found.
 Normal termination of Gaussian 16 at Tue Dec  8 10:45:25 2020.

 ----------------------------------------------------------------------
 # B3LYP/6-311++G(d,p) empiricaldispersion=gd3bj scf=xqc pop=npa geom=c
 heck
 ----------------------------------------------------------------------

 --------------------------------------
 CID_116230045_JID_417_Energie_neutraal
 --------------------------------------
 Structure from the checkpoint file:  "JID_417.chk"
 Charge =  0 Multiplicity = 1

 SCF Done:  E(RB3LYP) =  -840.023898700     A.U. after   14 cycles
 Normal termination of Gaussian 16 at Tue Dec  8 10:47:57 2020.

 ----------------------------------------------------------------------
 # B3LYP/6-311++G(d,p) empiricaldispersion=gd3bj scf=xqc pop=npa geom=c
 heck
 ----------------------------------------------------------------------

 ------------------------------------
 CID_116230045_JID_417_Energie_kation
 ------------------------------------
 Structure from the checkpoint file:  "JID_417.chk"
 Charge =  1 Multiplicity = 2

 SCF Done:  E(UB3LYP) =  -839.708572162     A.U. after   26 cycles
 Normal termination of Gaussian 16 at Tue Dec  8 10:52:17 2020.
 Gaussian 16:  ES64L-G16RevA.03 25-Dec-2016

 ----------------------------------------------------------------------
 # B3LYP/6-311++G(d,p) empiricaldispersion=gd3bj scf=xqc pop=npa geom=c
 heck
 ----------------------------------------------------------------------

 -----------------------------------
 CID_116230045_JID_417_Energie_anion
 -----------------------------------
 Structure from the checkpoint file:  "JID_417.chk"
 Charge = -1 Multiplicity = 2

                         Standard orientation:
 ---------------------------------------------------------------------
 Center     Atomic      Atomic             Coordinates (Angstroms)
 Number     Number       Type             X           Y           Z
 ---------------------------------------------------------------------
      1          6           0       -0.684475    0.918625    1.888445
      2          6           0       -1.245010    0.984881    0.471146
      3          6           0       -0.447005    1.863135   -0.505667
      4          6           0        1.080101    1.713137   -0.477713
      5          7           0        1.496666    0.329833   -0.622474
      6          6           0        2.386132   -0.272002    0.202694
      7          8           0        2.603209   -1.475057    0.256344
      8         16           0       -1.617556   -0.707753   -0.337532
      9          8           0       -0.885059   -0.749626   -1.680214
     10          6           0       -0.749983   -1.890669    0.754065
     11          1           0        0.291498    0.430556    1.927083
     12          1           0       -1.359765    0.389747    2.568019
     13          1           0       -0.568447    1.938354    2.275638
     14          1           0       -2.258506    1.399170    0.520317
     15          1           0       -0.800955    1.666476   -1.522303
     16          1           0       -0.686571    2.910714   -0.282186
     17          1           0        1.497475    2.336437   -1.280393
     18          1           0        1.488063    2.096527    0.464651
     19          1           0        0.908913   -0.262668   -1.221008
     20          1           0        2.913012    0.452983    0.858739
     21          1           0        0.334774   -1.772204    0.707446
     22          1           0       -1.123686   -1.801766    1.776682
     23          1           0       -1.015328   -2.874293    0.358290
 ---------------------------------------------------------------------

 SCF Done:  E(UB3LYP) =  -840.016663489     A.U. after   31 cycles

 The electronic state is 2-A.
 Alpha  occ. eigenvalues --  -88.84561 -18.99530 -18.98976 -14.23304 -10.17083
 Alpha  occ. eigenvalues --  -10.11152 -10.11038 -10.09573 -10.07856 -10.06820
 Alpha  occ. eigenvalues --   -7.92321  -5.88610  -5.88448  -5.87879  -0.93976
 Alpha  occ. eigenvalues --   -0.91369  -0.82864  -0.71933  -0.66809  -0.63114
 Alpha  occ. eigenvalues --   -0.57417  -0.53759  -0.52561  -0.45976  -0.40962
 Alpha  occ. eigenvalues --   -0.39346  -0.38342  -0.37451  -0.34695  -0.33779
 Alpha  occ. eigenvalues --   -0.32986  -0.32080  -0.31383  -0.30569  -0.29452
 Alpha  occ. eigenvalues --   -0.29148  -0.27439  -0.25802  -0.24555  -0.24286
 Alpha  occ. eigenvalues --   -0.17658  -0.16770  -0.15920  -0.13717   0.04284
 Alpha virt. eigenvalues --    0.07122   0.07922   0.08434   0.09784   0.09875
 Alpha virt. eigenvalues --    0.10209   0.10743   0.11307   0.11723   0.12798
 Alpha virt. eigenvalues --    0.13194   0.13624   0.14185   0.14748   0.15093

  Beta  occ. eigenvalues --  -88.84557 -18.99528 -18.98974 -14.23305 -10.17074
  Beta  occ. eigenvalues --  -10.11124 -10.11020 -10.09545 -10.07829 -10.06750
  Beta  occ. eigenvalues --   -7.92317  -5.88607  -5.88437  -5.87875  -0.93970
  Beta  occ. eigenvalues --   -0.91359  -0.82855  -0.71872  -0.66770  -0.63046
  Beta  occ. eigenvalues --   -0.57326  -0.53708  -0.52530  -0.45917  -0.40909
  Beta  occ. eigenvalues --   -0.39285  -0.38296  -0.37417  -0.34659  -0.33743
  Beta  occ. eigenvalues --   -0.32919  -0.32045  -0.31355  -0.30525  -0.29385
  Beta  occ. eigenvalues --   -0.29106  -0.27407  -0.25744  -0.24515  -0.24237
  Beta  occ. eigenvalues --   -0.17633  -0.16757  -0.15908  -0.13699
  Beta virt. eigenvalues --    0.07214   0.08019   0.08589   0.09164   0.09893
  Beta virt. eigenvalues --    0.10484   0.10784   0.11068   0.11758   0.12406
  Beta virt. eigenvalues --    0.13009   0.13472   0.14119   0.14608   0.15076

 Mulliken charges and spin densities:
               1          2
     1  C    2.222422  -2.884500
     2  C   -1.134355   1.358228
     3  C    0.301907  -0.879635
     4  C    0.341684  -0.750182
     5  N   -0.299271   0.032742
     6  C    0.225610  -0.201309
     7  O   -0.349430   0.012723
     8  S    1.123997  -0.557628
     9  O   -0.470127   0.003979
    10  C   -0.503769  -0.195678
    11  H   -0.151674   0.326715
    12  H   -0.522911   0.682502
    13  H   -0.505287   0.686423
    14  H   -0.814161   1.132495
    15  H    0.349227  -0.148572
    16  H   -0.864851   1.058896
    17  H   -0.200075   0.394187
    18  H   -0.066910   0.224602
    19  H    0.361656   0.040768
    20  H   -0.102765   0.198416
    21  H    0.210169   0.012959
    22  H   -0.205204   0.350853
    23  H    0.054117   0.101016
 Sum of Mulliken charges =  -1.00000   1.00000

 Dipole moment (field-independent basis, Debye):
    X=              1.7440    Y=             -4.3154    Z=             -3.6008  Tot=              5.8847
 Quadrupole moment (field-independent basis, Debye-Ang):
   XX=           -112.9998   YY=           -121.3796   ZZ=           -112.3149
   XY=             11.4908   XZ=              6.2957   YZ=             -9.4040

 Summary of Natural Population Analysis:

                                       Natural Population
                Natural  -----------------------------------------------
    Atom  No    Charge         Core      Valence    Rydberg      Total
 -----------------------------------------------------------------------
      C    1   -0.29810      0.99962     2.29013    0.00835     3.29810
      C    2   -0.17880      0.99955     2.16163    0.01762     3.17880
      C    3   -0.20557      0.99958     2.19438    0.01161     3.20557
      C    4   -0.08886      0.99961     2.07641    0.01284     3.08886
      N    5   -0.32909      0.99969     2.82050    0.00890     3.82909
      C    6    0.26739      0.99972     1.70986    0.02303     2.73261
      O    7   -0.32463      0.99988     3.31858    0.00617     4.32463
      S    8    0.57155      4.99946     2.38022    0.04877     7.42845
      O    9   -0.49349      0.99993     3.48775    0.00581     4.49349
      C   10   -0.38298      0.99960     2.37577    0.00761     3.38298
      H   11    0.09945      0.00000     0.39845    0.00210     0.40055
      H   12    0.10806      0.00000     0.38867    0.00327     0.39194
      H   13    0.11597      0.00000     0.37896    0.00507     0.38403
      H   14    0.11059      0.00000     0.38485    0.00456     0.38941
      H   15    0.11108      0.00000     0.38761    0.00131     0.38892
      H   16    0.11464      0.00000     0.38182    0.00354     0.38536
      H   17    0.09486      0.00000     0.40397    0.00117     0.40514
      H   18    0.09950      0.00000     0.39851    0.00199     0.40050
      H   19    0.21441      0.00000     0.28291    0.00269     0.28559
      H   20    0.04994      0.00000     0.44833    0.00173     0.45006
      H   21    0.12334      0.00000     0.37518    0.00148     0.37666
      H   22    0.11169      0.00000     0.38635    0.00196     0.38831
      H   23    0.10904      0.00000     0.38994    0.00102     0.39096
 =======================================================================
   * Total *   -0.00000     13.99664    29.82078    0.18258    44.00000

 Normal termination of Gaussian 16 at Tue Dec  8 10:58:24 2020.
