 Gaussian 16, Revision A.03,

 ----------------------------------------------------------------------
 # opt=(cartesian,calcfc) freq B3LYP/6-31G(d) empiricaldispersion=gd3bj
  scf=xqc
 ----------------------------------------------------------------------

 -------------------------------
 CID_131873537_JID_7235_neutraal
 -------------------------------
 Symbolic Z-matrix:
 Charge =  0 Multiplicity = 1

 SCF Done:  E(RB3LYP) =  -764.789188312     A.U. after   14 cycles
 SCF Done:  E(RB3LYP) =  -764.792257333     A.U. after   11 cycles
 SCF Done:  E(RB3LYP) =  -764.795172062     A.U. after   12 cycles
 SCF Done:  E(RB3LYP) =  -764.795879000     A.U. after   11 cycles
 SCF Done:  E(RB3LYP) =  -764.795495743     A.U. after   12 cycles
 SCF Done:  E(RB3LYP) =  -764.796364676     A.U. after   14 cycles
 SCF Done:  E(RB3LYP) =  -764.796264842     A.U. after   11 cycles
 SCF Done:  E(RB3LYP) =  -764.796188315     A.U. after   14 cycles
 SCF Done:  E(RB3LYP) =  -764.796388429     A.U. after   14 cycles
 SCF Done:  E(RB3LYP) =  -764.796523037     A.U. after   11 cycles
 SCF Done:  E(RB3LYP) =  -764.797033505     A.U. after    8 cycles
 SCF Done:  E(RB3LYP) =  -764.797033791     A.U. after    8 cycles
 SCF Done:  E(RB3LYP) =  -764.797032946     A.U. after    8 cycles
 SCF Done:  E(RB3LYP) =  -764.797034091     A.U. after    7 cycles
 SCF Done:  E(RB3LYP) =  -764.797033775     A.U. after    8 cycles

 - Thermochemistry -
 -------------------
 Temperature   298.150 Kelvin.  Pressure   1.00000 Atm.
 Atom     1 has atomic number  6 and mass  12.00000

 Molecular mass:   238.17936 amu.
 Principal axes and moments of inertia in atomic units:
                           1         2         3
     Eigenvalues --  2745.964704985.965036428.01910
           X            0.99998  -0.00264  -0.00583
           Y            0.00263   1.00000  -0.00111
           Z            0.00583   0.00109   0.99998
 This molecule is an asymmetric top.
 Rotational symmetry number  1.
 Warning -- assumption of classical behavior for rotation
           may cause significant error
 Rotational temperatures (Kelvin)      0.03154     0.01737     0.01347
 Rotational constants (GHZ):           0.65723     0.36196     0.28076
 Zero-point vibrational energy     913516.8 (Joules/Mol)
                                  218.33576 (Kcal/Mol)
 Warning -- explicit consideration of  24 degrees of freedom as
           vibrations may cause significant error
 Vibrational temperatures:     30.64    58.32    96.20   113.33   119.15
          (Kelvin)            181.81   200.95   268.20   299.48   320.96
                              354.23   396.03   428.49   437.01   469.42
                              486.91   528.98   562.32   601.29   624.58
                              665.55   712.03   720.14   768.96   907.63
                              919.03   971.14  1005.54  1045.32  1077.24
                             1111.09  1119.66  1182.55  1202.78  1257.96
                             1262.41  1281.69  1298.93  1359.25  1391.59
                             1419.90  1432.68  1468.49  1494.22  1498.16
                             1516.59  1527.05  1550.56  1582.38  1606.39
                             1650.89  1654.18  1656.37  1665.03  1671.30
                             1695.58  1750.70  1799.15  1832.47  1857.53
                             1867.02  1883.95  1909.62  1937.16  1948.96
                             1977.87  1983.68  2010.74  2015.68  2020.95
                             2024.51  2031.91  2058.03  2085.83  2108.97
                             2141.04  2150.07  2167.17  2175.33  2175.65
                             2189.35  2191.35  2199.44  2210.11  2214.87
                             2219.90  2334.99  2375.43  2455.60  4218.83
                             4232.66  4341.70  4346.41  4350.09  4376.10
                             4381.66  4383.40  4394.94  4406.28  4416.50
                             4417.04  4433.16  4436.31  4446.29  4454.81
                             4493.17  4494.04  4521.65  4567.38  5122.49
                             5273.20

 Zero-point correction=                           0.347940 (Hartree/Particle)
 Thermal correction to Energy=                    0.364555
 Thermal correction to Enthalpy=                  0.365499
 Thermal correction to Gibbs Free Energy=         0.303105
 Sum of electronic and zero-point Energies=           -764.450074
 Sum of electronic and thermal Energies=              -764.433458
 Sum of electronic and thermal Enthalpies=            -764.432514
 Sum of electronic and thermal Free Energies=         -764.494909

                     E (Thermal)             CV                S
                      KCal/Mol        Cal/Mol-Kelvin    Cal/Mol-Kelvin
 Total                  228.762             64.727            131.320
 Electronic               0.000              0.000              0.000
 Translational            0.889              2.981             42.305
 Rotational               0.889              2.981             32.842
 Vibrational            226.984             58.765             56.173
 Vibration     1          0.593              1.985              6.509
 Vibration     2          0.594              1.981              5.233
 Vibration     3          0.598              1.970              4.244
 Vibration     4          0.600              1.963              3.921
 Vibration     5          0.600              1.961              3.823
 Vibration     6          0.611              1.927              3.001
 Vibration     7          0.615              1.914              2.808
 Vibration     8          0.632              1.858              2.263
 Vibration     9          0.641              1.828              2.060
 Vibration    10          0.649              1.806              1.934
 Vibration    11          0.661              1.769              1.758
 Vibration    12          0.677              1.719              1.563
 Vibration    13          0.691              1.678              1.429
 Vibration    14          0.695              1.667              1.396
 Vibration    15          0.710              1.623              1.279
 Vibration    16          0.719              1.599              1.220
 Vibration    17          0.740              1.539              1.090
 Vibration    18          0.759              1.490              0.997
 Vibration    19          0.781              1.431              0.899
 Vibration    20          0.795              1.396              0.845
 Vibration    21          0.820              1.333              0.759
 Vibration    22          0.850              1.261              0.671
 Vibration    23          0.856              1.249              0.657
 Vibration    24          0.889              1.174              0.577

 SCF Done:  E(RB3LYP) =  -764.797034283     A.U. after    8 cycles
 SCF Done:  E(RB3LYP) =  -764.797034472     A.U. after    6 cycles
 Optimization completed.
    -- Stationary point found.

  Exact polarizability: 155.590  -9.417 155.969 -12.158  -0.757 128.302
 Approx polarizability: 197.585 -16.224 224.157 -21.638 -10.140 215.213

                      1                      2                      3
                      A                      A                      A
 Frequencies --     21.1701                46.9543                58.1582
 Red. masses --      5.3595                 3.4559                 3.9944
 Frc consts  --      0.0014                 0.0045                 0.0080
 IR Inten    --      2.4929                 0.9759                 1.4040

                      4                      5                      6
                      A                      A                      A
 Frequencies --     75.5123                87.4755               129.4871
 Red. masses --      5.5475                 4.4183                 3.5027
 Frc consts  --      0.0186                 0.0199                 0.0346
 IR Inten    --      6.1146                 1.3350                 1.2960

                      7                      8                      9
                      A                      A                      A
 Frequencies --    136.9284               172.0977               206.9076
 Red. masses --      3.3931                 2.7309                 3.6008
 Frc consts  --      0.0375                 0.0477                 0.0908
 IR Inten    --      0.5858                 0.6890                 1.1257

                     10                     11                     12
                      A                      A                      A
 Frequencies --    243.6224               256.2283               266.1988
 Red. masses --      1.1831                 2.2493                 1.9753
 Frc consts  --      0.0414                 0.0870                 0.0825
 IR Inten    --      0.8997                 5.7082                15.9479

                     13                     14                     15
                      A                      A                      A
 Frequencies --    295.4804               308.1240               333.1060
 Red. masses --      1.7000                 1.6080                 3.5098
 Frc consts  --      0.0875                 0.0899                 0.2295
 IR Inten    --      9.2081                13.3482                 8.8981

                     16                     17                     18
                      A                      A                      A
 Frequencies --    366.7045               398.6177               405.6708
 Red. masses --      2.4947                 2.6024                 2.1476
 Frc consts  --      0.1976                 0.2436                 0.2082
 IR Inten    --      0.4633                 2.9310                 0.6539

                     19                     20                     21
                      A                      A                      A
 Frequencies --    433.1697               445.9800               467.9693
 Red. masses --      2.0696                 1.9845                 2.8362
 Frc consts  --      0.2288                 0.2326                 0.3659
 IR Inten    --      1.2429                 2.3395                 3.6482

                     22                     23                     24
                      A                      A                      A
 Frequencies --    498.8519               513.2900               551.0467
 Red. masses --      2.8472                 2.4314                 2.0810
 Frc consts  --      0.4175                 0.3774                 0.3723
 IR Inten    --      1.3525                 0.5047                 5.2564

                     25                     26                     27
                      A                      A                      A
 Frequencies --    625.2312               633.5691               651.4827
 Red. masses --      1.6042                 2.4613                 4.1869
 Frc consts  --      0.3695                 0.5821                 1.0470
 IR Inten    --    218.7601                12.0411                 0.5599

                     28                     29                     30
                      A                      A                      A
 Frequencies --    688.0705               735.3052               768.6800
 Red. masses --      3.8362                 4.2469                 3.3000
 Frc consts  --      1.0701                 1.3529                 1.1488
 IR Inten    --      0.3379                37.4981                20.9355

                     31                     32                     33
                      A                      A                      A
 Frequencies --    772.3856               799.4458               802.1459
 Red. masses --      3.2173                 1.5090                 2.5171
 Frc consts  --      1.1309                 0.5682                 0.9542

 Normal termination of Gaussian 16 at Tue Feb 23 16:59:20 2021.

 ----------------------------------------------------------------------
 # B3LYP/6-311++G(d,p) empiricaldispersion=gd3bj scf=xqc pop=npa geom=c
 heck
 ----------------------------------------------------------------------

 ------------------------------------
 CID_131873537_JID_7235_Energie_anion
 ------------------------------------
 Structure from the checkpoint file:  "JID_7235.chk"
 Charge = -1 Multiplicity = 2

 SCF Done:  E(UB3LYP) =  -765.003870025     A.U. after   31 cycles
 SCF Done:  E(UB3LYP) =  -764.737759151     A.U. after   29 cycles
 Normal termination of Gaussian 16 at Tue Feb 23 17:27:55 2021.
 Gaussian 16:  ES64L-G16RevA.03 25-Dec-2016

 ----------------------------------------------------------------------
 # B3LYP/6-311++G(d,p) empiricaldispersion=gd3bj scf=xqc pop=npa geom=c
 heck
 ----------------------------------------------------------------------

 ------------------------------------
 CID_131873537_JID_7235_Energie_anion
 ------------------------------------
 Structure from the checkpoint file:  "JID_7235.chk"
 Charge = -1 Multiplicity = 2

                         Standard orientation:
 ---------------------------------------------------------------------
 Center     Atomic      Atomic             Coordinates (Angstroms)
 Number     Number       Type             X           Y           Z
 ---------------------------------------------------------------------
      1          6           0       -2.179650    2.303928   -0.065821
      2          7           0       -1.489145    1.088404   -0.460200
      3          6           0       -0.302764    1.368579   -1.264208
      4          6           0        0.743379    2.369108   -0.724933
      5          6           0        1.421103    2.016831    0.612216
      6          6           0        2.048223    0.669884    0.642583
      7          7           0        1.961437   -0.257676    1.534310
      8          7           0        2.746877   -1.340695    1.091950
      9          6           0        3.230136   -0.966906   -0.053843
     10          8           0        2.850494    0.287488   -0.421462
     11          7           0        3.988318   -1.685327   -0.940801
     12          6           0       -1.384367    0.055712    0.591243
     13          6           0       -2.763636   -0.220809    1.225846
     14          6           0       -3.763901   -0.790662    0.212029
     15          6           0       -3.227321   -2.083029   -0.418960
     16          6           0       -1.826261   -1.878160   -1.011527
     17          6           0       -0.866792   -1.282095    0.025998
     18          1           0       -2.162574    3.009957   -0.903357
     19          1           0       -1.737728    2.814525    0.811572
     20          1           0       -3.228978    2.101855    0.163691
     21          1           0        0.193773    0.425820   -1.499692
     22          1           0       -0.649444    1.774413   -2.225796
     23          1           0        1.516533    2.475793   -1.496689
     24          1           0        0.286719    3.359084   -0.611345
     25          1           0        2.186418    2.775707    0.827320
     26          1           0        0.707526    2.047423    1.439079
     27          1           0        4.652762   -1.140205   -1.476241
     28          1           0        4.392987   -2.514154   -0.523126
     29          1           0       -0.706249    0.368630    1.402524
     30          1           0       -2.604313   -0.951404    2.029792
     31          1           0       -3.164545    0.674745    1.711766
     32          1           0       -3.942200   -0.050368   -0.577697
     33          1           0       -4.727836   -0.978917    0.701570
     34          1           0       -3.918877   -2.447840   -1.189037
     35          1           0       -3.177548   -2.863949    0.354457
     36          1           0       -1.892887   -1.200741   -1.871819
     37          1           0       -1.429175   -2.831745   -1.381691
     38          1           0        0.139881   -1.186721   -0.388835
     39          1           0       -0.759495   -1.969057    0.874706
 ---------------------------------------------------------------------

 SCF Done:  E(UB3LYP) =  -765.004573778     A.U. after   30 cycles

 The electronic state is 2-A.
 Alpha  occ. eigenvalues --  -19.10450 -14.23621 -14.23233 -14.22019 -14.20756
 Alpha  occ. eigenvalues --  -10.19507 -10.16161 -10.10272 -10.09751 -10.09515
 Alpha  occ. eigenvalues --  -10.09488 -10.07827 -10.07802 -10.07674 -10.07557
 Alpha  occ. eigenvalues --  -10.07082 -10.06650  -1.05512  -0.87249  -0.83909
 Alpha  occ. eigenvalues --   -0.82947  -0.73664  -0.72964  -0.68226  -0.65372
 Alpha  occ. eigenvalues --   -0.64917  -0.61600  -0.57397  -0.55060  -0.52706
 Alpha  occ. eigenvalues --   -0.51675  -0.49938  -0.48091  -0.44512  -0.43698
 Alpha  occ. eigenvalues --   -0.41219  -0.40886  -0.39471  -0.39233  -0.37691
 Alpha  occ. eigenvalues --   -0.37295  -0.35725  -0.35227  -0.34464  -0.32935
 Alpha  occ. eigenvalues --   -0.32527  -0.31915  -0.29871  -0.29477  -0.28805
 Alpha  occ. eigenvalues --   -0.28060  -0.27583  -0.27414  -0.25561  -0.25274
 Alpha  occ. eigenvalues --   -0.24664  -0.24375  -0.23573  -0.23281  -0.21756
 Alpha  occ. eigenvalues --   -0.21363  -0.20763  -0.18069  -0.13552  -0.11502
 Alpha  occ. eigenvalues --    0.03878
 Alpha virt. eigenvalues --    0.05585   0.06326   0.07427   0.07563   0.08539
 Alpha virt. eigenvalues --    0.08735   0.09215   0.09969   0.10148   0.10383
 Alpha virt. eigenvalues --    0.10481   0.11588   0.11921   0.12110   0.12544

  Beta  occ. eigenvalues --  -19.10423 -14.23521 -14.23227 -14.22014 -14.20756
  Beta  occ. eigenvalues --  -10.19492 -10.16145 -10.10271 -10.09741 -10.09491
  Beta  occ. eigenvalues --  -10.09475 -10.07824 -10.07779 -10.07669 -10.07553
  Beta  occ. eigenvalues --  -10.07079 -10.06647  -1.05475  -0.87227  -0.83791
  Beta  occ. eigenvalues --   -0.82938  -0.73640  -0.72919  -0.68189  -0.65362
  Beta  occ. eigenvalues --   -0.64904  -0.61567  -0.57360  -0.55002  -0.52661
  Beta  occ. eigenvalues --   -0.51657  -0.49900  -0.48048  -0.44485  -0.43611
  Beta  occ. eigenvalues --   -0.41149  -0.40812  -0.39446  -0.39196  -0.37653
  Beta  occ. eigenvalues --   -0.37269  -0.35699  -0.35209  -0.34421  -0.32920
  Beta  occ. eigenvalues --   -0.32504  -0.31889  -0.29855  -0.29467  -0.28791
  Beta  occ. eigenvalues --   -0.28044  -0.27543  -0.27396  -0.25541  -0.25255
  Beta  occ. eigenvalues --   -0.24646  -0.24322  -0.23523  -0.23270  -0.21740
  Beta  occ. eigenvalues --   -0.21353  -0.20753  -0.18054  -0.13479  -0.11493
  Beta virt. eigenvalues --    0.05735   0.06630   0.07200   0.07569   0.08070
  Beta virt. eigenvalues --    0.08650   0.08961   0.09488   0.10242   0.10503
  Beta virt. eigenvalues --    0.10515   0.11037   0.11764   0.12150   0.12205

 Mulliken charges and spin densities:
               1          2
     1  C    0.328616  -0.734843
     2  N    0.037029   0.092275
     3  C   -0.219481   0.144895
     4  C    0.271431  -0.913393
     5  C    0.604529  -0.743307
     6  C   -0.002116  -0.504178
     7  N   -0.066298   0.155034
     8  N   -0.007787  -0.156855
     9  C    0.501645  -0.422975
    10  O    0.074072   0.012625
    11  N   -0.550614   0.301609
    12  C    0.249832   0.084880
    13  C   -0.213914  -0.406656
    14  C   -0.158062  -0.117504
    15  C   -0.373121  -0.185866
    16  C   -0.262055  -0.046767
    17  C   -0.570816   0.067577
    18  H   -0.135067   0.281478
    19  H   -0.100103   0.246991
    20  H    0.028637   0.091978
    21  H    0.120042   0.002472
    22  H   -0.095277   0.284193
    23  H   -0.233636   0.423364
    24  H   -0.075160   0.237060
    25  H   -0.315442   0.538574
    26  H    0.120935   0.049720
    27  H   -0.635104   0.917804
    28  H   -0.377917   0.663149
    29  H    0.208909  -0.010093
    30  H    0.113338   0.023223
    31  H    0.113357   0.049440
    32  H    0.099094   0.014437
    33  H    0.086355   0.070120
    34  H    0.075231   0.086754
    35  H    0.122049  -0.008455
    36  H    0.087320   0.055629
    37  H    0.118637   0.048460
    38  H   -0.148298   0.313909
    39  H    0.179211  -0.006755
 Sum of Mulliken charges =  -1.00000   1.00000

 Dipole moment (field-independent basis, Debye):
    X=             -9.5947    Y=              0.0405    Z=              2.0662  Tot=              9.8147
 Quadrupole moment (field-independent basis, Debye-Ang):
   XX=           -194.8578   YY=           -153.5204   ZZ=           -141.8023
   XY=             15.7173   XZ=              9.3073   YZ=              1.3383

 Summary of Natural Population Analysis:

                                       Natural Population
                Natural  -----------------------------------------------
    Atom  No    Charge         Core      Valence    Rydberg      Total
 -----------------------------------------------------------------------
      C    1   -0.17914      0.99964     2.17027    0.00923     3.17914
      N    2   -0.29445      0.99971     2.78124    0.01351     3.79445
      C    3   -0.08322      0.99960     2.07154    0.01208     3.08322
      C    4   -0.19668      0.99962     2.18818    0.00889     3.19668
      C    5   -0.22166      0.99957     2.21298    0.00910     3.22166
      C    6    0.25308      0.99958     1.72690    0.02044     2.74692
      N    7   -0.16407      0.99965     2.65238    0.01205     3.66407
      N    8   -0.20257      0.99966     2.69023    0.01268     3.70257
      C    9    0.33859      0.99961     1.64142    0.02039     2.66141
      O   10   -0.25084      0.99985     3.24251    0.00847     4.25084
      N   11   -0.39666      0.99971     2.88700    0.00996     3.89666
      C   12   -0.00205      0.99957     1.99041    0.01207     3.00205
      C   13   -0.19296      0.99961     2.18549    0.00786     3.19296
      C   14   -0.19308      0.99963     2.18573    0.00772     3.19308
      C   15   -0.18769      0.99963     2.18051    0.00755     3.18769
      C   16   -0.19200      0.99963     2.18506    0.00731     3.19200
      C   17   -0.19455      0.99961     2.18607    0.00888     3.19455
      H   18    0.09701      0.00000     0.40211    0.00088     0.40299
      H   19    0.08128      0.00000     0.41746    0.00126     0.41872
      H   20    0.09307      0.00000     0.40590    0.00102     0.40693
      H   21    0.09886      0.00000     0.39949    0.00165     0.40114
      H   22    0.09388      0.00000     0.40508    0.00104     0.40612
      H   23    0.10419      0.00000     0.39414    0.00168     0.39581
      H   24    0.09957      0.00000     0.39909    0.00134     0.40043
      H   25    0.11276      0.00000     0.38586    0.00137     0.38724
      H   26    0.11220      0.00000     0.38613    0.00167     0.38780
      H   27    0.20244      0.00000     0.27474    0.02282     0.29756
      H   28    0.19954      0.00000     0.29515    0.00531     0.30046
      H   29    0.09220      0.00000     0.40560    0.00220     0.40780
      H   30    0.09731      0.00000     0.40161    0.00109     0.40269
      H   31    0.09940      0.00000     0.39966    0.00095     0.40060
      H   32    0.09903      0.00000     0.39951    0.00146     0.40097
      H   33    0.09376      0.00000     0.40518    0.00106     0.40624
      H   34    0.09479      0.00000     0.40417    0.00105     0.40521
      H   35    0.08920      0.00000     0.40948    0.00131     0.41080
      H   36    0.09871      0.00000     0.39980    0.00149     0.40129
      H   37    0.09695      0.00000     0.40212    0.00093     0.40305
      H   38    0.10276      0.00000     0.39526    0.00199     0.39724
      H   39    0.10106      0.00000     0.39789    0.00105     0.39894
 =======================================================================
   * Total *    0.00000     16.99388    47.76333    0.24279    65.00000

 Normal termination of Gaussian 16 at Tue Feb 23 17:49:29 2021.
